
     Program PROJWFC v.7.0 starts on  1Feb2022 at  5:53:31 

     This program is part of the open-source Quantum ESPRESSO suite
     for quantum simulation of materials; please cite
         "P. Giannozzi et al., J. Phys.:Condens. Matter 21 395502 (2009);
         "P. Giannozzi et al., J. Phys.:Condens. Matter 29 465901 (2017);
         "P. Giannozzi et al., J. Chem. Phys. 152 154105 (2020);
          URL http://www.quantum-espresso.org", 
     in publications or presentations arising from this work. More details at
     http://www.quantum-espresso.org/quote

     Parallel version (MPI), running on     4 processors

     MPI processes distributed on     1 nodes
     R & G space division:  proc/nbgrp/npool/nimage =       4
     250375 MiB available memory on the printing compute node when the environment starts
 

     Reading xml data from directory:

     ../tmp/gr.save/

     IMPORTANT: XC functional enforced from input :
     Exchange-correlation= PBE
                           (   1   4   3   4   0   0   0)
     Any further DFT definition will be discarded
     Please, verify this is what you really want

 
     Parallelization info
     --------------------
     sticks:   dense  smooth     PW     G-vecs:    dense   smooth      PW
     Min          60      60     20                 4546     4546     852
     Max          61      61     22                 4565     4565     860
     Sum         241     241     85                18211    18211    3425
 
     Using Slab Decomposition
 

     Check: negative core charge=   -0.000016

     negative rho (up, down):  4.226E-04 0.000E+00

     Linear tetrahedron method (read from file) 
     [opt_tetra]  Linear tetrahedron method is used.

     Calling projwave .... 

     Subspace diagonalization in iterative solution of the eigenvalue problem:
     a serial algorithm will be used

 
  Problem Sizes 
  natomwfc =            8
  nbnd     =           16
  nkstot   =          217
  npwx     =          581
  nkb      =           16
 

     Atomic states used for projection
     (read from pseudopotential files):

     state #   1: atom   1 (C  ), wfc  1 (l=0 m= 1)
     state #   2: atom   1 (C  ), wfc  2 (l=1 m= 1)
     state #   3: atom   1 (C  ), wfc  2 (l=1 m= 2)
     state #   4: atom   1 (C  ), wfc  2 (l=1 m= 3)
     state #   5: atom   2 (C  ), wfc  1 (l=0 m= 1)
     state #   6: atom   2 (C  ), wfc  2 (l=1 m= 1)
     state #   7: atom   2 (C  ), wfc  2 (l=1 m= 2)
     state #   8: atom   2 (C  ), wfc  2 (l=1 m= 3)

 k =   0.0000000000  0.0000000000  0.0000000000
==== e(   1) =   -21.25896 eV ==== 
     psi = 0.492*[#   1]+0.492*[#   5]
    |psi|^2 = 0.983
==== e(   2) =    -9.35855 eV ==== 
     psi = 0.473*[#   2]+0.473*[#   6]
    |psi|^2 = 0.946
==== e(   3) =    -4.80112 eV ==== 
     psi = 0.249*[#   3]+0.249*[#   4]+0.249*[#   7]+0.249*[#   8]
    |psi|^2 = 0.997
==== e(   4) =    -4.80112 eV ==== 
     psi = 0.249*[#   3]+0.249*[#   4]+0.249*[#   7]+0.249*[#   8]
    |psi|^2 = 0.997
==== e(   5) =     1.15754 eV ==== 
     psi = 0.002*[#   1]+0.002*[#   5]
    |psi|^2 = 0.004
==== e(   6) =     1.90001 eV ==== 
     psi = 0.010*[#   2]+0.010*[#   6]
    |psi|^2 = 0.019
==== e(   7) =     2.12592 eV ==== 
     psi = 0.002*[#   1]+0.002*[#   5]
    |psi|^2 = 0.003
==== e(   8) =     4.13946 eV ==== 
     psi = 0.010*[#   2]+0.010*[#   6]
    |psi|^2 = 0.020
==== e(   9) =     4.93682 eV ==== 
     psi = 0.002*[#   1]+0.002*[#   5]
    |psi|^2 = 0.003
==== e(  10) =     6.58769 eV ==== 
     psi = 0.235*[#   3]+0.235*[#   4]+0.235*[#   7]+0.235*[#   8]
    |psi|^2 = 0.940
==== e(  11) =     6.58769 eV ==== 
     psi = 0.235*[#   3]+0.235*[#   4]+0.235*[#   7]+0.235*[#   8]
    |psi|^2 = 0.940
==== e(  12) =     8.09699 eV ==== 
     psi = 0.005*[#   2]+0.005*[#   6]
    |psi|^2 = 0.009
==== e(  13) =     9.24287 eV ==== 
     psi = 0.001*[#   1]+0.001*[#   5]
    |psi|^2 = 0.002
==== e(  14) =     9.71874 eV ==== 
     psi = 0.497*[#   2]+0.497*[#   6]
    |psi|^2 = 0.993
==== e(  15) =    10.83734 eV ==== 
     psi = 0.488*[#   1]+0.488*[#   5]
    |psi|^2 = 0.977
==== e(  16) =    13.47014 eV ==== 
     psi = 0.002*[#   2]+0.002*[#   6]
    |psi|^2 = 0.004

 k =   0.0000000000  0.0240562612  0.0000000000
==== e(   1) =   -21.24872 eV ==== 
     psi = 0.490*[#   1]+0.490*[#   5]
    |psi|^2 = 0.983
==== e(   2) =    -9.34626 eV ==== 
     psi = 0.473*[#   2]+0.473*[#   6]
    |psi|^2 = 0.946
==== e(   3) =    -4.84372 eV ==== 
     psi = 0.249*[#   3]+0.249*[#   4]+0.249*[#   7]+0.249*[#   8]+0.001*[#   1]
          +0.001*[#   5]
    |psi|^2 = 0.997
==== e(   4) =    -4.82378 eV ==== 
     psi = 0.249*[#   3]+0.249*[#   4]+0.249*[#   7]+0.249*[#   8]
    |psi|^2 = 0.997
==== e(   5) =     1.17166 eV ==== 
     psi = 0.002*[#   1]+0.002*[#   5]
    |psi|^2 = 0.005
==== e(   6) =     1.91418 eV ==== 
     psi = 0.010*[#   2]+0.010*[#   6]
    |psi|^2 = 0.019
==== e(   7) =     2.14002 eV ==== 
     psi = 0.002*[#   1]+0.002*[#   5]
    |psi|^2 = 0.004
==== e(   8) =     4.15343 eV ==== 
     psi = 0.010*[#   2]+0.010*[#   6]
    |psi|^2 = 0.019
==== e(   9) =     4.95062 eV ==== 
     psi = 0.002*[#   1]+0.002*[#   5]
    |psi|^2 = 0.003
==== e(  10) =     6.59433 eV ==== 
     psi = 0.233*[#   3]+0.233*[#   4]+0.233*[#   7]+0.233*[#   8]+0.002*[#   1]
          +0.002*[#   5]
    |psi|^2 = 0.938
==== e(  11) =     6.63262 eV ==== 
     psi = 0.235*[#   3]+0.235*[#   4]+0.235*[#   7]+0.235*[#   8]
    |psi|^2 = 0.940
==== e(  12) =     8.11061 eV ==== 
     psi = 0.005*[#   2]+0.005*[#   6]
    |psi|^2 = 0.009
==== e(  13) =     9.25706 eV ==== 
     psi = 0.001*[#   1]+0.001*[#   5]
    |psi|^2 = 0.002
==== e(  14) =     9.68252 eV ==== 
     psi = 0.496*[#   2]+0.496*[#   6]
    |psi|^2 = 0.993
==== e(  15) =    10.85504 eV ==== 
     psi = 0.487*[#   1]+0.487*[#   5]
    |psi|^2 = 0.976
==== e(  16) =    13.48284 eV ==== 
     psi = 0.002*[#   2]+0.002*[#   6]
    |psi|^2 = 0.004

 k =   0.0000000000  0.0481125224  0.0000000000
==== e(   1) =   -21.21796 eV ==== 
     psi = 0.484*[#   1]+0.484*[#   5]+0.004*[#   3]+0.004*[#   4]+0.004*[#   7]
          +0.004*[#   8]
    |psi|^2 = 0.983
==== e(   2) =    -9.30942 eV ==== 
     psi = 0.473*[#   2]+0.473*[#   6]
    |psi|^2 = 0.947
==== e(   3) =    -4.96973 eV ==== 
     psi = 0.247*[#   3]+0.247*[#   4]+0.247*[#   7]+0.247*[#   8]+0.004*[#   1]
          +0.004*[#   5]
    |psi|^2 = 0.997
==== e(   4) =    -4.89033 eV ==== 
     psi = 0.249*[#   3]+0.249*[#   4]+0.249*[#   7]+0.249*[#   8]
    |psi|^2 = 0.997
==== e(   5) =     1.21401 eV ==== 
     psi = 0.002*[#   1]+0.002*[#   5]
    |psi|^2 = 0.007
==== e(   6) =     1.95670 eV ==== 
     psi = 0.009*[#   2]+0.009*[#   6]
    |psi|^2 = 0.019
==== e(   7) =     2.18234 eV ==== 
     psi = 0.001*[#   1]+0.001*[#   5]
    |psi|^2 = 0.005
==== e(   8) =     4.19533 eV ==== 
     psi = 0.010*[#   2]+0.010*[#   6]
    |psi|^2 = 0.019
==== e(   9) =     4.99202 eV ==== 
     psi = 0.001*[#   1]+0.001*[#   5]
    |psi|^2 = 0.003
==== e(  10) =     6.61240 eV ==== 
     psi = 0.229*[#   3]+0.229*[#   4]+0.229*[#   7]+0.229*[#   8]+0.008*[#   1]
          +0.008*[#   5]
    |psi|^2 = 0.933
==== e(  11) =     6.76642 eV ==== 
     psi = 0.235*[#   3]+0.235*[#   4]+0.235*[#   7]+0.235*[#   8]
    |psi|^2 = 0.939
==== e(  12) =     8.15145 eV ==== 
     psi = 0.004*[#   2]+0.004*[#   6]
    |psi|^2 = 0.009
==== e(  13) =     9.29958 eV ==== 
 
    |psi|^2 = 0.003
==== e(  14) =     9.57473 eV ==== 
     psi = 0.496*[#   2]+0.496*[#   6]
    |psi|^2 = 0.991
==== e(  15) =    10.90919 eV ==== 
     psi = 0.483*[#   1]+0.483*[#   5]+0.002*[#   3]+0.002*[#   4]+0.002*[#   7]
          +0.002*[#   8]
    |psi|^2 = 0.976
==== e(  16) =    13.52086 eV ==== 
     psi = 0.002*[#   2]+0.002*[#   6]
    |psi|^2 = 0.004

 k =   0.0000000000  0.0721687836  0.0000000000
==== e(   1) =   -21.16671 eV ==== 
     psi = 0.475*[#   1]+0.475*[#   5]+0.008*[#   3]+0.008*[#   4]+0.008*[#   7]
          +0.008*[#   8]
    |psi|^2 = 0.983
==== e(   2) =    -9.24806 eV ==== 
     psi = 0.474*[#   2]+0.474*[#   6]
    |psi|^2 = 0.948
==== e(   3) =    -5.17421 eV ==== 
     psi = 0.244*[#   3]+0.244*[#   4]+0.244*[#   7]+0.244*[#   8]+0.010*[#   1]
          +0.010*[#   5]
    |psi|^2 = 0.997
==== e(   4) =    -4.99733 eV ==== 
     psi = 0.249*[#   3]+0.249*[#   4]+0.249*[#   7]+0.249*[#   8]
    |psi|^2 = 0.997
==== e(   5) =     1.28460 eV ==== 
     psi = 0.002*[#   3]+0.002*[#   4]+0.002*[#   7]+0.002*[#   8]+0.001*[#   1]
          +0.001*[#   5]
    |psi|^2 = 0.010
==== e(   6) =     2.02754 eV ==== 
     psi = 0.009*[#   2]+0.009*[#   6]
    |psi|^2 = 0.018
==== e(   7) =     2.25288 eV ==== 
     psi = 0.001*[#   1]+0.001*[#   3]+0.001*[#   4]+0.001*[#   5]+0.001*[#   7]
          +0.001*[#   8]
    |psi|^2 = 0.007
==== e(   8) =     4.26515 eV ==== 
     psi = 0.009*[#   2]+0.009*[#   6]
    |psi|^2 = 0.019
==== e(   9) =     5.06102 eV ==== 
     psi = 0.001*[#   1]+0.001*[#   5]
    |psi|^2 = 0.003
==== e(  10) =     6.63650 eV ==== 
     psi = 0.222*[#   3]+0.222*[#   4]+0.222*[#   7]+0.222*[#   8]+0.019*[#   1]
          +0.019*[#   5]
    |psi|^2 = 0.926
==== e(  11) =     6.98497 eV ==== 
     psi = 0.234*[#   3]+0.234*[#   4]+0.234*[#   7]+0.234*[#   8]
    |psi|^2 = 0.937
==== e(  12) =     8.21944 eV ==== 
     psi = 0.004*[#   2]+0.004*[#   6]
    |psi|^2 = 0.009
==== e(  13) =     9.37028 eV ==== 
 
    |psi|^2 = 0.005
==== e(  14) =     9.39794 eV ==== 
     psi = 0.494*[#   2]+0.494*[#   6]
    |psi|^2 = 0.989
==== e(  15) =    11.00208 eV ==== 
     psi = 0.476*[#   1]+0.476*[#   5]+0.005*[#   3]+0.005*[#   4]+0.005*[#   7]
          +0.005*[#   8]
    |psi|^2 = 0.974
==== e(  16) =    13.58398 eV ==== 
     psi = 0.002*[#   2]+0.002*[#   6]
    |psi|^2 = 0.004

 k =   0.0000000000  0.0962250449  0.0000000000
==== e(   1) =   -21.09506 eV ==== 
     psi = 0.464*[#   1]+0.464*[#   5]+0.014*[#   3]+0.014*[#   4]+0.014*[#   7]
          +0.014*[#   8]
    |psi|^2 = 0.983
==== e(   2) =    -9.16231 eV ==== 
     psi = 0.475*[#   2]+0.475*[#   6]
    |psi|^2 = 0.950
==== e(   3) =    -5.44994 eV ==== 
     psi = 0.241*[#   3]+0.241*[#   4]+0.241*[#   7]+0.241*[#   8]+0.017*[#   1]
          +0.017*[#   5]
    |psi|^2 = 0.997
==== e(   4) =    -5.13955 eV ==== 
     psi = 0.249*[#   3]+0.249*[#   4]+0.249*[#   7]+0.249*[#   8]
    |psi|^2 = 0.997
==== e(   5) =     1.38343 eV ==== 
     psi = 0.003*[#   3]+0.003*[#   4]+0.003*[#   7]+0.003*[#   8]
    |psi|^2 = 0.013
==== e(   6) =     2.12670 eV ==== 
     psi = 0.009*[#   2]+0.009*[#   6]
    |psi|^2 = 0.018
==== e(   7) =     2.35163 eV ==== 
     psi = 0.002*[#   3]+0.002*[#   4]+0.002*[#   7]+0.002*[#   8]
    |psi|^2 = 0.009
==== e(   8) =     4.36282 eV ==== 
     psi = 0.009*[#   2]+0.009*[#   6]
    |psi|^2 = 0.018
==== e(   9) =     5.15761 eV ==== 
     psi = 0.001*[#   1]+0.001*[#   5]
    |psi|^2 = 0.003
==== e(  10) =     6.65897 eV ==== 
     psi = 0.213*[#   3]+0.213*[#   4]+0.213*[#   7]+0.213*[#   8]+0.034*[#   1]
          +0.034*[#   5]
    |psi|^2 = 0.917
==== e(  11) =     7.28282 eV ==== 
     psi = 0.234*[#   3]+0.234*[#   4]+0.234*[#   7]+0.234*[#   8]
    |psi|^2 = 0.936
==== e(  12) =     8.31438 eV ==== 
     psi = 0.004*[#   2]+0.004*[#   6]
    |psi|^2 = 0.008
==== e(  13) =     9.15614 eV ==== 
     psi = 0.493*[#   2]+0.493*[#   6]
    |psi|^2 = 0.985
==== e(  14) =     9.46890 eV ==== 
     psi = 0.001*[#   3]+0.001*[#   4]+0.001*[#   7]+0.001*[#   8]
    |psi|^2 = 0.006
==== e(  15) =    11.13647 eV ==== 
     psi = 0.466*[#   1]+0.466*[#   5]+0.010*[#   3]+0.010*[#   4]+0.010*[#   7]
          +0.010*[#   8]
    |psi|^2 = 0.972
==== e(  16) =    13.67182 eV ==== 
     psi = 0.002*[#   2]+0.002*[#   6]
    |psi|^2 = 0.003

 k =   0.0000000000  0.1202813061  0.0000000000
==== e(   1) =   -21.00298 eV ==== 
     psi = 0.450*[#   1]+0.450*[#   5]+0.021*[#   3]+0.021*[#   4]+0.021*[#   7]
          +0.021*[#   8]
    |psi|^2 = 0.983
==== e(   2) =    -9.05229 eV ==== 
     psi = 0.477*[#   2]+0.477*[#   6]
    |psi|^2 = 0.953
==== e(   3) =    -5.78797 eV ==== 
     psi = 0.237*[#   3]+0.237*[#   4]+0.237*[#   7]+0.237*[#   8]+0.025*[#   1]
          +0.025*[#   5]
    |psi|^2 = 0.996
==== e(   4) =    -5.31057 eV ==== 
     psi = 0.249*[#   3]+0.249*[#   4]+0.249*[#   7]+0.249*[#   8]
    |psi|^2 = 0.997
==== e(   5) =     1.51050 eV ==== 
     psi = 0.004*[#   3]+0.004*[#   4]+0.004*[#   7]+0.004*[#   8]
    |psi|^2 = 0.017
==== e(   6) =     2.25415 eV ==== 
     psi = 0.008*[#   2]+0.008*[#   6]
    |psi|^2 = 0.017
==== e(   7) =     2.47863 eV ==== 
     psi = 0.002*[#   3]+0.002*[#   4]+0.002*[#   7]+0.002*[#   8]
    |psi|^2 = 0.011
==== e(   8) =     4.48830 eV ==== 
     psi = 0.008*[#   2]+0.008*[#   6]
    |psi|^2 = 0.017
==== e(   9) =     5.28171 eV ==== 
     psi = 0.001*[#   1]+0.001*[#   5]
    |psi|^2 = 0.003
==== e(  10) =     6.67318 eV ==== 
     psi = 0.201*[#   3]+0.201*[#   4]+0.201*[#   7]+0.201*[#   8]+0.052*[#   1]
          +0.052*[#   5]
    |psi|^2 = 0.909
==== e(  11) =     7.65315 eV ==== 
     psi = 0.233*[#   3]+0.233*[#   4]+0.233*[#   7]+0.233*[#   8]
    |psi|^2 = 0.933
==== e(  12) =     8.43547 eV ==== 
     psi = 0.005*[#   2]+0.005*[#   6]
    |psi|^2 = 0.010
==== e(  13) =     8.85517 eV ==== 
     psi = 0.490*[#   2]+0.490*[#   6]
    |psi|^2 = 0.979
==== e(  14) =     9.59518 eV ==== 
     psi = 0.002*[#   3]+0.002*[#   4]+0.002*[#   7]+0.002*[#   8]
    |psi|^2 = 0.007
==== e(  15) =    11.31432 eV ==== 
     psi = 0.451*[#   1]+0.451*[#   5]+0.017*[#   3]+0.017*[#   4]+0.017*[#   7]
          +0.017*[#   8]
    |psi|^2 = 0.969
==== e(  16) =    13.78386 eV ==== 
     psi = 0.002*[#   2]+0.002*[#   6]
    |psi|^2 = 0.003

 k =   0.0000000000  0.1443375673  0.0000000000
==== e(   1) =   -20.89057 eV ==== 
     psi = 0.436*[#   1]+0.436*[#   5]+0.028*[#   3]+0.028*[#   4]+0.028*[#   7]
          +0.028*[#   8]
    |psi|^2 = 0.982
==== e(   2) =    -8.91820 eV ==== 
     psi = 0.478*[#   2]+0.478*[#   6]
    |psi|^2 = 0.956
==== e(   3) =    -6.17899 eV ==== 
     psi = 0.232*[#   3]+0.232*[#   4]+0.232*[#   7]+0.232*[#   8]+0.034*[#   1]
          +0.034*[#   5]
    |psi|^2 = 0.996
==== e(   4) =    -5.50388 eV ==== 
     psi = 0.249*[#   3]+0.249*[#   4]+0.249*[#   7]+0.249*[#   8]
    |psi|^2 = 0.997
==== e(   5) =     1.66579 eV ==== 
     psi = 0.005*[#   3]+0.005*[#   4]+0.005*[#   7]+0.005*[#   8]
    |psi|^2 = 0.020
==== e(   6) =     2.40985 eV ==== 
     psi = 0.008*[#   2]+0.008*[#   6]
    |psi|^2 = 0.016
==== e(   7) =     2.63385 eV ==== 
     psi = 0.003*[#   3]+0.003*[#   4]+0.003*[#   7]+0.003*[#   8]
    |psi|^2 = 0.013
==== e(   8) =     4.64149 eV ==== 
     psi = 0.008*[#   2]+0.008*[#   6]
    |psi|^2 = 0.016
==== e(   9) =     5.43308 eV ==== 
     psi = 0.002*[#   1]+0.002*[#   5]
    |psi|^2 = 0.004
==== e(  10) =     6.67393 eV ==== 
     psi = 0.188*[#   3]+0.188*[#   4]+0.188*[#   7]+0.188*[#   8]+0.074*[#   1]
          +0.074*[#   5]
    |psi|^2 = 0.901
==== e(  11) =     8.08869 eV ==== 
     psi = 0.233*[#   3]+0.233*[#   4]+0.233*[#   7]+0.233*[#   8]
    |psi|^2 = 0.931
==== e(  12) =     8.48524 eV ==== 
     psi = 0.434*[#   2]+0.434*[#   6]
    |psi|^2 = 0.867
==== e(  13) =     8.59809 eV ==== 
     psi = 0.059*[#   2]+0.059*[#   6]
    |psi|^2 = 0.118
==== e(  14) =     9.74881 eV ==== 
     psi = 0.002*[#   3]+0.002*[#   4]+0.002*[#   7]+0.002*[#   8]
    |psi|^2 = 0.009
==== e(  15) =    11.53554 eV ==== 
     psi = 0.433*[#   1]+0.433*[#   5]+0.024*[#   3]+0.024*[#   4]+0.024*[#   7]
          +0.024*[#   8]
    |psi|^2 = 0.963
==== e(  16) =    13.91935 eV ==== 
     psi = 0.002*[#   2]+0.002*[#   6]
    |psi|^2 = 0.003

 k =   0.0000000000  0.1683938285  0.0000000000
==== e(   1) =   -20.75789 eV ==== 
     psi = 0.420*[#   1]+0.420*[#   5]+0.035*[#   3]+0.035*[#   4]+0.035*[#   7]
          +0.035*[#   8]
    |psi|^2 = 0.982
==== e(   2) =    -8.76028 eV ==== 
     psi = 0.480*[#   2]+0.480*[#   6]
    |psi|^2 = 0.959
==== e(   3) =    -6.61388 eV ==== 
     psi = 0.227*[#   3]+0.227*[#   4]+0.227*[#   7]+0.227*[#   8]+0.044*[#   1]
          +0.044*[#   5]
    |psi|^2 = 0.995
==== e(   4) =    -5.71302 eV ==== 
     psi = 0.249*[#   3]+0.249*[#   4]+0.249*[#   7]+0.249*[#   8]
    |psi|^2 = 0.997
==== e(   5) =     1.84929 eV ==== 
     psi = 0.006*[#   3]+0.006*[#   4]+0.006*[#   7]+0.006*[#   8]
    |psi|^2 = 0.023
==== e(   6) =     2.59375 eV ==== 
     psi = 0.007*[#   2]+0.007*[#   6]
    |psi|^2 = 0.015
==== e(   7) =     2.81729 eV ==== 
     psi = 0.003*[#   3]+0.003*[#   4]+0.003*[#   7]+0.003*[#   8]
    |psi|^2 = 0.014
==== e(   8) =     4.82218 eV ==== 
     psi = 0.007*[#   2]+0.007*[#   6]
    |psi|^2 = 0.015
==== e(   9) =     5.61116 eV ==== 
     psi = 0.002*[#   1]+0.002*[#   5]
    |psi|^2 = 0.005
==== e(  10) =     6.65876 eV ==== 
     psi = 0.175*[#   3]+0.175*[#   4]+0.175*[#   7]+0.175*[#   8]+0.097*[#   1]
          +0.097*[#   5]
    |psi|^2 = 0.894
==== e(  11) =     8.08927 eV ==== 
     psi = 0.483*[#   2]+0.483*[#   6]
    |psi|^2 = 0.966
==== e(  12) =     8.58154 eV ==== 
     psi = 0.232*[#   3]+0.232*[#   4]+0.232*[#   7]+0.232*[#   8]
    |psi|^2 = 0.928
==== e(  13) =     8.76524 eV ==== 
     psi = 0.007*[#   2]+0.007*[#   6]
    |psi|^2 = 0.013
==== e(  14) =     9.92954 eV ==== 
     psi = 0.002*[#   3]+0.002*[#   4]+0.002*[#   7]+0.002*[#   8]
    |psi|^2 = 0.009
==== e(  15) =    11.79716 eV ==== 
     psi = 0.411*[#   1]+0.411*[#   5]+0.033*[#   3]+0.033*[#   4]+0.033*[#   7]
          +0.033*[#   8]
    |psi|^2 = 0.955
==== e(  16) =    14.07727 eV ==== 
     psi = 0.002*[#   2]+0.002*[#   6]
    |psi|^2 = 0.003

 k =   0.0000000000  0.1924500897  0.0000000000
==== e(   1) =   -20.60504 eV ==== 
     psi = 0.405*[#   1]+0.405*[#   5]+0.043*[#   3]+0.043*[#   4]+0.043*[#   7]
          +0.043*[#   8]
    |psi|^2 = 0.982
==== e(   2) =    -8.57884 eV ==== 
     psi = 0.482*[#   2]+0.482*[#   6]
    |psi|^2 = 0.963
==== e(   3) =    -7.08416 eV ==== 
     psi = 0.222*[#   3]+0.222*[#   4]+0.222*[#   7]+0.222*[#   8]+0.054*[#   1]
          +0.054*[#   5]
    |psi|^2 = 0.994
==== e(   4) =    -5.93201 eV ==== 
     psi = 0.249*[#   3]+0.249*[#   4]+0.249*[#   7]+0.249*[#   8]
    |psi|^2 = 0.997
==== e(   5) =     2.06097 eV ==== 
     psi = 0.006*[#   3]+0.006*[#   4]+0.006*[#   7]+0.006*[#   8]
    |psi|^2 = 0.025
==== e(   6) =     2.80577 eV ==== 
     psi = 0.007*[#   2]+0.007*[#   6]
    |psi|^2 = 0.013
==== e(   7) =     3.02894 eV ==== 
     psi = 0.004*[#   3]+0.004*[#   4]+0.004*[#   7]+0.004*[#   8]
    |psi|^2 = 0.015
==== e(   8) =     5.03004 eV ==== 
     psi = 0.007*[#   2]+0.007*[#   6]
    |psi|^2 = 0.014
==== e(   9) =     5.81452 eV ==== 
     psi = 0.004*[#   1]+0.004*[#   5]
    |psi|^2 = 0.009
==== e(  10) =     6.62903 eV ==== 
     psi = 0.161*[#   3]+0.161*[#   4]+0.161*[#   7]+0.161*[#   8]+0.120*[#   1]
          +0.120*[#   5]
    |psi|^2 = 0.886
==== e(  11) =     7.64317 eV ==== 
     psi = 0.482*[#   2]+0.482*[#   6]
    |psi|^2 = 0.965
==== e(  12) =     8.96723 eV ==== 
     psi = 0.005*[#   2]+0.005*[#   6]
    |psi|^2 = 0.010
==== e(  13) =     9.12478 eV ==== 
     psi = 0.231*[#   3]+0.231*[#   4]+0.231*[#   7]+0.231*[#   8]
    |psi|^2 = 0.925
==== e(  14) =    10.13723 eV ==== 
     psi = 0.002*[#   3]+0.002*[#   4]+0.002*[#   7]+0.002*[#   8]
    |psi|^2 = 0.009
==== e(  15) =    12.09371 eV ==== 
     psi = 0.388*[#   1]+0.388*[#   5]+0.042*[#   3]+0.042*[#   4]+0.042*[#   7]
          +0.042*[#   8]
    |psi|^2 = 0.944
==== e(  16) =    14.25614 eV ==== 
     psi = 0.002*[#   2]+0.002*[#   6]
    |psi|^2 = 0.003

 k =   0.0000000000  0.2165063509  0.0000000000
==== e(   1) =   -20.43215 eV ==== 
     psi = 0.389*[#   1]+0.389*[#   5]+0.051*[#   3]+0.051*[#   4]+0.051*[#   7]
          +0.051*[#   8]
    |psi|^2 = 0.981
==== e(   2) =    -8.37427 eV ==== 
     psi = 0.483*[#   2]+0.483*[#   6]
    |psi|^2 = 0.967
==== e(   3) =    -7.58212 eV ==== 
     psi = 0.216*[#   3]+0.216*[#   4]+0.216*[#   7]+0.216*[#   8]+0.064*[#   1]
          +0.064*[#   5]
    |psi|^2 = 0.994
==== e(   4) =    -6.15559 eV ==== 
     psi = 0.249*[#   3]+0.249*[#   4]+0.249*[#   7]+0.249*[#   8]
    |psi|^2 = 0.997
==== e(   5) =     2.30080 eV ==== 
     psi = 0.006*[#   3]+0.006*[#   4]+0.006*[#   7]+0.006*[#   8]
    |psi|^2 = 0.026
==== e(   6) =     3.04576 eV ==== 
     psi = 0.006*[#   2]+0.006*[#   6]
    |psi|^2 = 0.012
==== e(   7) =     3.26876 eV ==== 
     psi = 0.004*[#   3]+0.004*[#   4]+0.004*[#   7]+0.004*[#   8]
    |psi|^2 = 0.015
==== e(   8) =     5.26419 eV ==== 
     psi = 0.007*[#   2]+0.007*[#   6]
    |psi|^2 = 0.013
==== e(   9) =     6.03829 eV ==== 
     psi = 0.010*[#   1]+0.010*[#   5]+0.002*[#   3]+0.002*[#   4]+0.002*[#   7]
          +0.002*[#   8]
    |psi|^2 = 0.028
==== e(  10) =     6.59131 eV ==== 
     psi = 0.146*[#   3]+0.146*[#   4]+0.146*[#   7]+0.146*[#   8]+0.139*[#   1]
          +0.139*[#   5]
    |psi|^2 = 0.864
==== e(  11) =     7.16173 eV ==== 
     psi = 0.480*[#   2]+0.480*[#   6]
    |psi|^2 = 0.960
==== e(  12) =     9.19606 eV ==== 
     psi = 0.004*[#   2]+0.004*[#   6]
    |psi|^2 = 0.009
==== e(  13) =     9.71171 eV ==== 
     psi = 0.230*[#   3]+0.230*[#   4]+0.230*[#   7]+0.230*[#   8]
    |psi|^2 = 0.921
==== e(  14) =    10.37181 eV ==== 
     psi = 0.002*[#   3]+0.002*[#   4]+0.002*[#   7]+0.002*[#   8]
    |psi|^2 = 0.009
==== e(  15) =    12.41747 eV ==== 
     psi = 0.364*[#   1]+0.364*[#   5]+0.050*[#   3]+0.050*[#   4]+0.050*[#   7]
          +0.050*[#   8]
    |psi|^2 = 0.929
==== e(  16) =    14.45383 eV ==== 
     psi = 0.002*[#   2]+0.002*[#   6]
    |psi|^2 = 0.003

 k =   0.0000000000  0.2405626122  0.0000000000
==== e(   1) =   -20.23934 eV ==== 
     psi = 0.375*[#   1]+0.375*[#   5]+0.058*[#   3]+0.058*[#   4]+0.058*[#   7]
          +0.058*[#   8]
    |psi|^2 = 0.981
==== e(   2) =    -8.14707 eV ==== 
     psi = 0.485*[#   2]+0.485*[#   6]
    |psi|^2 = 0.971
==== e(   3) =    -8.10111 eV ==== 
     psi = 0.211*[#   3]+0.211*[#   4]+0.211*[#   7]+0.211*[#   8]+0.074*[#   1]
          +0.074*[#   5]
    |psi|^2 = 0.993
==== e(   4) =    -6.37925 eV ==== 
     psi = 0.249*[#   3]+0.249*[#   4]+0.249*[#   7]+0.249*[#   8]
    |psi|^2 = 0.997
==== e(   5) =     2.56874 eV ==== 
     psi = 0.006*[#   3]+0.006*[#   4]+0.006*[#   7]+0.006*[#   8]
    |psi|^2 = 0.026
==== e(   6) =     3.31345 eV ==== 
     psi = 0.006*[#   2]+0.006*[#   6]
    |psi|^2 = 0.011
==== e(   7) =     3.53672 eV ==== 
     psi = 0.004*[#   3]+0.004*[#   4]+0.004*[#   7]+0.004*[#   8]
    |psi|^2 = 0.014
==== e(   8) =     5.52140 eV ==== 
     psi = 0.009*[#   2]+0.009*[#   6]
    |psi|^2 = 0.018
==== e(   9) =     6.25675 eV ==== 
     psi = 0.045*[#   1]+0.045*[#   5]+0.020*[#   3]+0.020*[#   4]+0.020*[#   7]
          +0.020*[#   8]
    |psi|^2 = 0.170
==== e(  10) =     6.57414 eV ==== 
     psi = 0.129*[#   1]+0.129*[#   5]+0.116*[#   3]+0.116*[#   4]+0.116*[#   7]
          +0.116*[#   8]
    |psi|^2 = 0.722
==== e(  11) =     6.65458 eV ==== 
     psi = 0.475*[#   2]+0.475*[#   6]
    |psi|^2 = 0.950
==== e(  12) =     9.45102 eV ==== 
     psi = 0.004*[#   2]+0.004*[#   6]
    |psi|^2 = 0.008
==== e(  13) =    10.33589 eV ==== 
     psi = 0.230*[#   3]+0.230*[#   4]+0.230*[#   7]+0.230*[#   8]
    |psi|^2 = 0.918
==== e(  14) =    10.63325 eV ==== 
     psi = 0.002*[#   3]+0.002*[#   4]+0.002*[#   7]+0.002*[#   8]+0.001*[#   1]
          +0.001*[#   5]
    |psi|^2 = 0.009
==== e(  15) =    12.75875 eV ==== 
     psi = 0.338*[#   1]+0.338*[#   5]+0.058*[#   3]+0.058*[#   4]+0.058*[#   7]
          +0.058*[#   8]
    |psi|^2 = 0.908
==== e(  16) =    14.66704 eV ==== 
     psi = 0.002*[#   2]+0.002*[#   6]
    |psi|^2 = 0.004

 k =   0.0000000000  0.2646188734  0.0000000000
==== e(   1) =   -20.02680 eV ==== 
     psi = 0.361*[#   1]+0.361*[#   5]+0.065*[#   3]+0.065*[#   4]+0.065*[#   7]
          +0.065*[#   8]
    |psi|^2 = 0.981
==== e(   2) =    -8.63528 eV ==== 
     psi = 0.206*[#   3]+0.206*[#   4]+0.206*[#   7]+0.206*[#   8]+0.084*[#   1]
          +0.084*[#   5]
    |psi|^2 = 0.992
==== e(   3) =    -7.89784 eV ==== 
     psi = 0.487*[#   2]+0.487*[#   6]
    |psi|^2 = 0.975
==== e(   4) =    -6.59916 eV ==== 
     psi = 0.249*[#   3]+0.249*[#   4]+0.249*[#   7]+0.249*[#   8]
    |psi|^2 = 0.997
==== e(   5) =     2.86472 eV ==== 
     psi = 0.006*[#   3]+0.006*[#   4]+0.006*[#   7]+0.006*[#   8]
    |psi|^2 = 0.025
==== e(   6) =     3.60821 eV ==== 
     psi = 0.005*[#   2]+0.005*[#   6]
    |psi|^2 = 0.010
==== e(   7) =     3.83275 eV ==== 
     psi = 0.003*[#   3]+0.003*[#   4]+0.003*[#   7]+0.003*[#   8]
    |psi|^2 = 0.013
==== e(   8) =     5.76937 eV ==== 
     psi = 0.067*[#   2]+0.067*[#   6]
    |psi|^2 = 0.135
==== e(   9) =     6.16035 eV ==== 
     psi = 0.414*[#   2]+0.414*[#   6]
    |psi|^2 = 0.828
==== e(  10) =     6.34732 eV ==== 
     psi = 0.156*[#   1]+0.156*[#   5]+0.085*[#   3]+0.085*[#   4]+0.085*[#   7]
          +0.085*[#   8]
    |psi|^2 = 0.651
==== e(  11) =     6.70337 eV ==== 
     psi = 0.041*[#   3]+0.041*[#   4]+0.041*[#   7]+0.041*[#   8]+0.040*[#   1]
          +0.040*[#   5]
    |psi|^2 = 0.242
==== e(  12) =     9.73157 eV ==== 
     psi = 0.004*[#   2]+0.004*[#   6]
    |psi|^2 = 0.007
==== e(  13) =    10.92148 eV ==== 
     psi = 0.002*[#   3]+0.002*[#   4]+0.002*[#   7]+0.002*[#   8]+0.001*[#   1]
          +0.001*[#   5]
    |psi|^2 = 0.008
==== e(  14) =    10.99085 eV ==== 
     psi = 0.229*[#   3]+0.229*[#   4]+0.229*[#   7]+0.229*[#   8]
    |psi|^2 = 0.915
==== e(  15) =    13.10537 eV ==== 
     psi = 0.312*[#   1]+0.312*[#   5]+0.064*[#   3]+0.064*[#   4]+0.064*[#   7]
          +0.064*[#   8]
    |psi|^2 = 0.881
==== e(  16) =    14.89048 eV ==== 
     psi = 0.002*[#   2]+0.002*[#   6]
    |psi|^2 = 0.004

 k =   0.0000000000  0.2886751346  0.0000000000
==== e(   1) =   -19.79469 eV ==== 
     psi = 0.347*[#   1]+0.347*[#   5]+0.072*[#   3]+0.072*[#   4]+0.072*[#   7]
          +0.072*[#   8]
    |psi|^2 = 0.981
==== e(   2) =    -9.17962 eV ==== 
     psi = 0.201*[#   3]+0.201*[#   4]+0.201*[#   7]+0.201*[#   8]+0.094*[#   1]
          +0.094*[#   5]
    |psi|^2 = 0.992
==== e(   3) =    -7.62736 eV ==== 
     psi = 0.489*[#   2]+0.489*[#   6]
    |psi|^2 = 0.979
==== e(   4) =    -6.81200 eV ==== 
     psi = 0.249*[#   3]+0.249*[#   4]+0.249*[#   7]+0.249*[#   8]
    |psi|^2 = 0.997
==== e(   5) =     3.18867 eV ==== 
     psi = 0.006*[#   3]+0.006*[#   4]+0.006*[#   7]+0.006*[#   8]
    |psi|^2 = 0.023
==== e(   6) =     3.92804 eV ==== 
     psi = 0.006*[#   2]+0.006*[#   6]
    |psi|^2 = 0.013
==== e(   7) =     4.15675 eV ==== 
     psi = 0.003*[#   3]+0.003*[#   4]+0.003*[#   7]+0.003*[#   8]
    |psi|^2 = 0.011
==== e(   8) =     5.51085 eV ==== 
     psi = 0.443*[#   2]+0.443*[#   6]
    |psi|^2 = 0.885
==== e(   9) =     6.18389 eV ==== 
     psi = 0.035*[#   2]+0.035*[#   6]
    |psi|^2 = 0.070
==== e(  10) =     6.30690 eV ==== 
     psi = 0.206*[#   1]+0.206*[#   5]+0.101*[#   3]+0.101*[#   4]+0.101*[#   7]
          +0.101*[#   8]
    |psi|^2 = 0.815
==== e(  11) =     6.98581 eV ==== 
     psi = 0.014*[#   3]+0.014*[#   4]+0.014*[#   7]+0.014*[#   8]+0.011*[#   1]
          +0.011*[#   5]
    |psi|^2 = 0.080
==== e(  12) =    10.03708 eV ==== 
     psi = 0.003*[#   2]+0.003*[#   6]
    |psi|^2 = 0.007
==== e(  13) =    11.23640 eV ==== 
     psi = 0.001*[#   1]+0.001*[#   3]+0.001*[#   4]+0.001*[#   5]+0.001*[#   7]
          +0.001*[#   8]
    |psi|^2 = 0.008
==== e(  14) =    11.67066 eV ==== 
     psi = 0.228*[#   3]+0.228*[#   4]+0.228*[#   7]+0.228*[#   8]
    |psi|^2 = 0.912
==== e(  15) =    13.44198 eV ==== 
     psi = 0.285*[#   1]+0.285*[#   5]+0.068*[#   3]+0.068*[#   4]+0.068*[#   7]
          +0.068*[#   8]
    |psi|^2 = 0.843
==== e(  16) =    15.11506 eV ==== 
     psi = 0.003*[#   2]+0.003*[#   6]
    |psi|^2 = 0.006

 k =   0.0000000000  0.3127313958  0.0000000000
==== e(   1) =   -19.54323 eV ==== 
     psi = 0.335*[#   1]+0.335*[#   5]+0.078*[#   3]+0.078*[#   4]+0.078*[#   7]
          +0.078*[#   8]
    |psi|^2 = 0.981
==== e(   2) =    -9.72987 eV ==== 
     psi = 0.196*[#   3]+0.196*[#   4]+0.196*[#   7]+0.196*[#   8]+0.103*[#   1]
          +0.103*[#   5]
    |psi|^2 = 0.991
==== e(   3) =    -7.33661 eV ==== 
     psi = 0.491*[#   2]+0.491*[#   6]
    |psi|^2 = 0.982
==== e(   4) =    -7.01511 eV ==== 
     psi = 0.249*[#   3]+0.249*[#   4]+0.249*[#   7]+0.249*[#   8]
    |psi|^2 = 0.997
==== e(   5) =     3.54048 eV ==== 
     psi = 0.005*[#   3]+0.005*[#   4]+0.005*[#   7]+0.005*[#   8]
    |psi|^2 = 0.021
==== e(   6) =     4.26068 eV ==== 
     psi = 0.022*[#   2]+0.022*[#   6]
    |psi|^2 = 0.043
==== e(   7) =     4.50852 eV ==== 
     psi = 0.002*[#   3]+0.002*[#   4]+0.002*[#   7]+0.002*[#   8]
    |psi|^2 = 0.009
==== e(   8) =     4.97647 eV ==== 
     psi = 0.448*[#   2]+0.448*[#   6]
    |psi|^2 = 0.897
==== e(   9) =     6.23767 eV ==== 
     psi = 0.232*[#   1]+0.232*[#   5]+0.098*[#   3]+0.098*[#   4]+0.098*[#   7]
          +0.098*[#   8]
    |psi|^2 = 0.856
==== e(  10) =     6.51199 eV ==== 
     psi = 0.011*[#   2]+0.011*[#   6]
    |psi|^2 = 0.023
==== e(  11) =     7.32229 eV ==== 
     psi = 0.008*[#   3]+0.008*[#   4]+0.008*[#   7]+0.008*[#   8]+0.005*[#   1]
          +0.005*[#   5]
    |psi|^2 = 0.041
==== e(  12) =    10.36672 eV ==== 
     psi = 0.003*[#   2]+0.003*[#   6]
    |psi|^2 = 0.006
==== e(  13) =    11.57786 eV ==== 
     psi = 0.001*[#   1]+0.001*[#   5]+0.001*[#   3]+0.001*[#   4]+0.001*[#   7]
          +0.001*[#   8]
    |psi|^2 = 0.007
==== e(  14) =    12.36878 eV ==== 
     psi = 0.228*[#   3]+0.228*[#   4]+0.228*[#   7]+0.228*[#   8]
    |psi|^2 = 0.910
==== e(  15) =    13.74698 eV ==== 
     psi = 0.255*[#   1]+0.255*[#   5]+0.070*[#   3]+0.070*[#   4]+0.070*[#   7]
          +0.070*[#   8]
    |psi|^2 = 0.788
==== e(  16) =    15.32382 eV ==== 
     psi = 0.004*[#   2]+0.004*[#   6]
    |psi|^2 = 0.008

 k =   0.0000000000  0.3367876570  0.0000000000
==== e(   1) =   -19.27272 eV ==== 
     psi = 0.323*[#   1]+0.323*[#   5]+0.084*[#   3]+0.084*[#   4]+0.084*[#   7]
          +0.084*[#   8]
    |psi|^2 = 0.981
==== e(   2) =   -10.28226 eV ==== 
     psi = 0.192*[#   3]+0.192*[#   4]+0.192*[#   7]+0.192*[#   8]+0.112*[#   1]
          +0.112*[#   5]
    |psi|^2 = 0.991
==== e(   3) =    -7.20626 eV ==== 
     psi = 0.249*[#   3]+0.249*[#   4]+0.249*[#   7]+0.249*[#   8]
    |psi|^2 = 0.996
==== e(   4) =    -7.02692 eV ==== 
     psi = 0.493*[#   2]+0.493*[#   6]
    |psi|^2 = 0.986
==== e(   5) =     3.91997 eV ==== 
     psi = 0.004*[#   3]+0.004*[#   4]+0.004*[#   7]+0.004*[#   8]
    |psi|^2 = 0.018
==== e(   6) =     4.29768 eV ==== 
     psi = 0.392*[#   2]+0.392*[#   6]
    |psi|^2 = 0.783
==== e(   7) =     4.74408 eV ==== 
     psi = 0.081*[#   2]+0.081*[#   6]
    |psi|^2 = 0.161
==== e(   8) =     4.88758 eV ==== 
     psi = 0.001*[#   3]+0.001*[#   4]+0.001*[#   7]+0.001*[#   8]
    |psi|^2 = 0.007
==== e(   9) =     6.16280 eV ==== 
     psi = 0.251*[#   1]+0.251*[#   5]+0.093*[#   3]+0.093*[#   4]+0.093*[#   7]
          +0.093*[#   8]
    |psi|^2 = 0.873
==== e(  10) =     6.88062 eV ==== 
     psi = 0.007*[#   2]+0.007*[#   6]
    |psi|^2 = 0.014
==== e(  11) =     7.69278 eV ==== 
     psi = 0.005*[#   3]+0.005*[#   4]+0.005*[#   7]+0.005*[#   8]+0.003*[#   1]
          +0.003*[#   5]
    |psi|^2 = 0.026
==== e(  12) =    10.71931 eV ==== 
     psi = 0.003*[#   2]+0.003*[#   6]
    |psi|^2 = 0.006
==== e(  13) =    11.94554 eV ==== 
     psi = 0.002*[#   1]+0.002*[#   5]
    |psi|^2 = 0.007
==== e(  14) =    13.07835 eV ==== 
     psi = 0.227*[#   3]+0.227*[#   4]+0.227*[#   7]+0.227*[#   8]
    |psi|^2 = 0.909
==== e(  15) =    13.98720 eV ==== 
     psi = 0.219*[#   1]+0.219*[#   5]+0.067*[#   3]+0.067*[#   4]+0.067*[#   7]
          +0.067*[#   8]
    |psi|^2 = 0.707
==== e(  16) =    15.48218 eV ==== 
     psi = 0.006*[#   2]+0.006*[#   6]
    |psi|^2 = 0.013

 k =   0.0000000000  0.3608439182  0.0000000000
==== e(   1) =   -18.98351 eV ==== 
     psi = 0.312*[#   1]+0.312*[#   5]+0.089*[#   3]+0.089*[#   4]+0.089*[#   7]
          +0.089*[#   8]
    |psi|^2 = 0.981
==== e(   2) =   -10.83359 eV ==== 
     psi = 0.188*[#   3]+0.188*[#   4]+0.188*[#   7]+0.188*[#   8]+0.120*[#   1]
          +0.120*[#   5]
    |psi|^2 = 0.990
==== e(   3) =    -7.38361 eV ==== 
     psi = 0.249*[#   3]+0.249*[#   4]+0.249*[#   7]+0.249*[#   8]
    |psi|^2 = 0.996
==== e(   4) =    -6.69999 eV ==== 
     psi = 0.494*[#   2]+0.494*[#   6]
    |psi|^2 = 0.989
==== e(   5) =     3.76209 eV ==== 
     psi = 0.460*[#   2]+0.460*[#   6]
    |psi|^2 = 0.921
==== e(   6) =     4.32686 eV ==== 
     psi = 0.003*[#   3]+0.003*[#   4]+0.003*[#   7]+0.003*[#   8]
    |psi|^2 = 0.014
==== e(   7) =     5.10683 eV ==== 
     psi = 0.012*[#   2]+0.012*[#   6]
    |psi|^2 = 0.024
==== e(   8) =     5.29233 eV ==== 
     psi = 0.003*[#   1]+0.003*[#   5]
    |psi|^2 = 0.007
==== e(   9) =     6.09053 eV ==== 
     psi = 0.266*[#   1]+0.266*[#   5]+0.087*[#   3]+0.087*[#   4]+0.087*[#   7]
          +0.087*[#   8]
    |psi|^2 = 0.881
==== e(  10) =     7.27866 eV ==== 
     psi = 0.005*[#   2]+0.005*[#   6]
    |psi|^2 = 0.010
==== e(  11) =     8.09312 eV ==== 
     psi = 0.004*[#   3]+0.004*[#   4]+0.004*[#   7]+0.004*[#   8]+0.002*[#   1]
          +0.002*[#   5]
    |psi|^2 = 0.018
==== e(  12) =    11.09315 eV ==== 
     psi = 0.003*[#   2]+0.003*[#   6]
    |psi|^2 = 0.006
==== e(  13) =    12.33903 eV ==== 
     psi = 0.002*[#   1]+0.002*[#   5]
    |psi|^2 = 0.007
==== e(  14) =    13.79156 eV ==== 
     psi = 0.227*[#   3]+0.227*[#   4]+0.227*[#   7]+0.227*[#   8]
    |psi|^2 = 0.909
==== e(  15) =    14.11141 eV ==== 
     psi = 0.176*[#   1]+0.176*[#   5]+0.059*[#   3]+0.059*[#   4]+0.059*[#   7]
          +0.059*[#   8]
    |psi|^2 = 0.586
==== e(  16) =    15.51751 eV ==== 
     psi = 0.010*[#   2]+0.010*[#   6]
    |psi|^2 = 0.019

 k =   0.0000000000  0.3849001795  0.0000000000
==== e(   1) =   -18.67603 eV ==== 
     psi = 0.303*[#   1]+0.303*[#   5]+0.094*[#   3]+0.094*[#   4]+0.094*[#   7]
          +0.094*[#   8]
    |psi|^2 = 0.981
==== e(   2) =   -11.38110 eV ==== 
     psi = 0.184*[#   3]+0.184*[#   4]+0.184*[#   7]+0.184*[#   8]+0.128*[#   1]
          +0.128*[#   5]
    |psi|^2 = 0.990
==== e(   3) =    -7.54564 eV ==== 
     psi = 0.249*[#   3]+0.249*[#   4]+0.249*[#   7]+0.249*[#   8]
    |psi|^2 = 0.996
==== e(   4) =    -6.35815 eV ==== 
     psi = 0.495*[#   2]+0.495*[#   6]
    |psi|^2 = 0.991
==== e(   5) =     3.19025 eV ==== 
     psi = 0.467*[#   2]+0.467*[#   6]
    |psi|^2 = 0.933
==== e(   6) =     4.76048 eV ==== 
     psi = 0.002*[#   3]+0.002*[#   4]+0.002*[#   7]+0.002*[#   8]
    |psi|^2 = 0.011
==== e(   7) =     5.53575 eV ==== 
     psi = 0.006*[#   2]+0.006*[#   6]
    |psi|^2 = 0.012
==== e(   8) =     5.71099 eV ==== 
     psi = 0.024*[#   1]+0.024*[#   5]+0.001*[#   3]+0.001*[#   4]+0.001*[#   7]
          +0.001*[#   8]
    |psi|^2 = 0.054
==== e(   9) =     6.03615 eV ==== 
     psi = 0.259*[#   1]+0.259*[#   5]+0.080*[#   3]+0.080*[#   4]+0.080*[#   7]
          +0.080*[#   8]
    |psi|^2 = 0.839
==== e(  10) =     7.70396 eV ==== 
     psi = 0.004*[#   2]+0.004*[#   6]
    |psi|^2 = 0.008
==== e(  11) =     8.52185 eV ==== 
     psi = 0.003*[#   3]+0.003*[#   4]+0.003*[#   7]+0.003*[#   8]+0.001*[#   1]
          +0.001*[#   5]
    |psi|^2 = 0.013
==== e(  12) =    11.48550 eV ==== 
     psi = 0.003*[#   2]+0.003*[#   6]
    |psi|^2 = 0.007
==== e(  13) =    12.75746 eV ==== 
     psi = 0.002*[#   1]+0.002*[#   5]
    |psi|^2 = 0.008
==== e(  14) =    14.05137 eV ==== 
     psi = 0.124*[#   1]+0.124*[#   5]+0.044*[#   3]+0.044*[#   4]+0.044*[#   7]
          +0.044*[#   8]
    |psi|^2 = 0.423
==== e(  15) =    14.49948 eV ==== 
     psi = 0.228*[#   3]+0.228*[#   4]+0.228*[#   7]+0.228*[#   8]
    |psi|^2 = 0.911
==== e(  16) =    15.31955 eV ==== 
     psi = 0.012*[#   2]+0.012*[#   6]
    |psi|^2 = 0.023

 k =   0.0000000000  0.4089564407  0.0000000000
==== e(   1) =   -18.35085 eV ==== 
     psi = 0.294*[#   1]+0.294*[#   5]+0.099*[#   3]+0.099*[#   4]+0.099*[#   7]
          +0.099*[#   8]
    |psi|^2 = 0.982
==== e(   2) =   -11.92213 eV ==== 
     psi = 0.180*[#   3]+0.180*[#   4]+0.180*[#   7]+0.180*[#   8]+0.135*[#   1]
          +0.135*[#   5]
    |psi|^2 = 0.989
==== e(   3) =    -7.69109 eV ==== 
     psi = 0.249*[#   3]+0.249*[#   4]+0.249*[#   7]+0.249*[#   8]
    |psi|^2 = 0.996
==== e(   4) =    -6.00468 eV ==== 
     psi = 0.496*[#   2]+0.496*[#   6]
    |psi|^2 = 0.993
==== e(   5) =     2.62264 eV ==== 
     psi = 0.469*[#   2]+0.469*[#   6]
    |psi|^2 = 0.937
==== e(   6) =     5.21849 eV ==== 
     psi = 0.004*[#   1]+0.004*[#   5]
    |psi|^2 = 0.011
==== e(   7) =     5.91306 eV ==== 
     psi = 0.265*[#   1]+0.265*[#   5]+0.061*[#   3]+0.061*[#   4]+0.061*[#   7]
          +0.061*[#   8]
    |psi|^2 = 0.774
==== e(   8) =     5.99704 eV ==== 
     psi = 0.004*[#   2]+0.004*[#   6]
    |psi|^2 = 0.008
==== e(   9) =     6.23465 eV ==== 
     psi = 0.028*[#   1]+0.028*[#   5]+0.016*[#   3]+0.016*[#   4]+0.016*[#   7]
          +0.016*[#   8]
    |psi|^2 = 0.118
==== e(  10) =     8.15550 eV ==== 
     psi = 0.004*[#   2]+0.004*[#   6]
    |psi|^2 = 0.007
==== e(  11) =     8.97825 eV ==== 
     psi = 0.002*[#   3]+0.002*[#   4]+0.002*[#   7]+0.002*[#   8]
    |psi|^2 = 0.010
==== e(  12) =    11.89141 eV ==== 
     psi = 0.004*[#   2]+0.004*[#   6]
    |psi|^2 = 0.008
==== e(  13) =    13.19748 eV ==== 
     psi = 0.004*[#   1]+0.004*[#   5]+0.001*[#   3]+0.001*[#   4]+0.001*[#   7]
          +0.001*[#   8]
    |psi|^2 = 0.014
==== e(  14) =    13.76245 eV ==== 
     psi = 0.073*[#   1]+0.073*[#   5]+0.026*[#   3]+0.026*[#   4]+0.026*[#   7]
          +0.026*[#   8]
    |psi|^2 = 0.251
==== e(  15) =    14.86471 eV ==== 
     psi = 0.010*[#   2]+0.010*[#   6]
    |psi|^2 = 0.019
==== e(  16) =    15.19144 eV ==== 
     psi = 0.229*[#   3]+0.229*[#   4]+0.229*[#   7]+0.229*[#   8]
    |psi|^2 = 0.914

 k =   0.0000000000  0.4330127019  0.0000000000
==== e(   1) =   -18.00879 eV ==== 
     psi = 0.286*[#   1]+0.286*[#   5]+0.103*[#   3]+0.103*[#   4]+0.103*[#   7]
          +0.103*[#   8]
    |psi|^2 = 0.982
==== e(   2) =   -12.45424 eV ==== 
     psi = 0.176*[#   3]+0.176*[#   4]+0.176*[#   7]+0.176*[#   8]+0.141*[#   1]
          +0.141*[#   5]
    |psi|^2 = 0.988
==== e(   3) =    -7.81894 eV ==== 
     psi = 0.249*[#   3]+0.249*[#   4]+0.249*[#   7]+0.249*[#   8]
    |psi|^2 = 0.996
==== e(   4) =    -5.64429 eV ==== 
     psi = 0.497*[#   2]+0.497*[#   6]
    |psi|^2 = 0.994
==== e(   5) =     2.07014 eV ==== 
     psi = 0.470*[#   2]+0.470*[#   6]
    |psi|^2 = 0.940
==== e(   6) =     5.67515 eV ==== 
     psi = 0.059*[#   1]+0.059*[#   5]+0.004*[#   3]+0.004*[#   4]+0.004*[#   7]
          +0.004*[#   8]
    |psi|^2 = 0.133
==== e(   7) =     5.90317 eV ==== 
     psi = 0.246*[#   1]+0.246*[#   5]+0.063*[#   3]+0.063*[#   4]+0.063*[#   7]
          +0.063*[#   8]
    |psi|^2 = 0.742
==== e(   8) =     6.48717 eV ==== 
     psi = 0.003*[#   2]+0.003*[#   6]
    |psi|^2 = 0.006
==== e(   9) =     6.70831 eV ==== 
     psi = 0.005*[#   3]+0.005*[#   4]+0.005*[#   7]+0.005*[#   8]+0.004*[#   1]
          +0.004*[#   5]
    |psi|^2 = 0.027
==== e(  10) =     8.63235 eV ==== 
     psi = 0.003*[#   2]+0.003*[#   6]
    |psi|^2 = 0.006
==== e(  11) =     9.46177 eV ==== 
     psi = 0.001*[#   3]+0.001*[#   4]+0.001*[#   7]+0.001*[#   8]
    |psi|^2 = 0.007
==== e(  12) =    12.29942 eV ==== 
     psi = 0.005*[#   2]+0.005*[#   6]
    |psi|^2 = 0.010
==== e(  13) =    13.24926 eV ==== 
     psi = 0.043*[#   1]+0.043*[#   5]+0.015*[#   3]+0.015*[#   4]+0.015*[#   7]
          +0.015*[#   8]
    |psi|^2 = 0.145
==== e(  14) =    13.68171 eV ==== 
 
    |psi|^2 = 0.003
==== e(  15) =    14.26176 eV ==== 
     psi = 0.006*[#   2]+0.006*[#   6]
    |psi|^2 = 0.013
==== e(  16) =    14.64962 eV ==== 
     psi = 0.011*[#   1]+0.011*[#   5]+0.004*[#   3]+0.004*[#   4]+0.004*[#   7]
          +0.004*[#   8]
    |psi|^2 = 0.039

 k =   0.0000000000  0.4570689631  0.0000000000
==== e(   1) =   -17.65111 eV ==== 
     psi = 0.279*[#   1]+0.279*[#   5]+0.106*[#   3]+0.106*[#   4]+0.106*[#   7]
          +0.106*[#   8]
    |psi|^2 = 0.983
==== e(   2) =   -12.97481 eV ==== 
     psi = 0.173*[#   3]+0.173*[#   4]+0.173*[#   7]+0.173*[#   8]+0.147*[#   1]
          +0.147*[#   5]
    |psi|^2 = 0.987
==== e(   3) =    -7.92837 eV ==== 
     psi = 0.249*[#   3]+0.249*[#   4]+0.249*[#   7]+0.249*[#   8]
    |psi|^2 = 0.995
==== e(   4) =    -5.28397 eV ==== 
     psi = 0.498*[#   2]+0.498*[#   6]
    |psi|^2 = 0.995
==== e(   5) =     1.54303 eV ==== 
     psi = 0.471*[#   2]+0.471*[#   6]
    |psi|^2 = 0.942
==== e(   6) =     5.78817 eV ==== 
     psi = 0.303*[#   1]+0.303*[#   5]+0.054*[#   3]+0.054*[#   4]+0.054*[#   7]
          +0.054*[#   8]
    |psi|^2 = 0.822
==== e(   7) =     6.25709 eV ==== 
     psi = 0.013*[#   1]+0.013*[#   5]+0.010*[#   3]+0.010*[#   4]+0.010*[#   7]
          +0.010*[#   8]
    |psi|^2 = 0.065
==== e(   8) =     7.00498 eV ==== 
     psi = 0.002*[#   2]+0.002*[#   6]
    |psi|^2 = 0.005
==== e(   9) =     7.22444 eV ==== 
     psi = 0.003*[#   3]+0.003*[#   4]+0.003*[#   7]+0.003*[#   8]+0.001*[#   1]
          +0.001*[#   5]
    |psi|^2 = 0.013
==== e(  10) =     9.13339 eV ==== 
     psi = 0.003*[#   2]+0.003*[#   6]
    |psi|^2 = 0.006
==== e(  11) =     9.97184 eV ==== 
     psi = 0.001*[#   3]+0.001*[#   4]+0.001*[#   7]+0.001*[#   8]
    |psi|^2 = 0.006
==== e(  12) =    12.63549 eV ==== 
     psi = 0.023*[#   1]+0.023*[#   5]+0.008*[#   3]+0.008*[#   4]+0.008*[#   7]
          +0.008*[#   8]
    |psi|^2 = 0.076
==== e(  13) =    12.66418 eV ==== 
     psi = 0.007*[#   2]+0.007*[#   6]
    |psi|^2 = 0.014
==== e(  14) =    13.63497 eV ==== 
     psi = 0.002*[#   2]+0.002*[#   6]
    |psi|^2 = 0.005
==== e(  15) =    13.86459 eV ==== 
     psi = 0.008*[#   1]+0.008*[#   5]+0.003*[#   3]+0.003*[#   4]+0.003*[#   7]
          +0.003*[#   8]
    |psi|^2 = 0.028
==== e(  16) =    14.16888 eV ==== 
     psi = 0.002*[#   1]+0.002*[#   5]
    |psi|^2 = 0.006

 k =   0.0000000000  0.4811252243  0.0000000000
==== e(   1) =   -17.28000 eV ==== 
     psi = 0.275*[#   1]+0.275*[#   5]+0.109*[#   3]+0.109*[#   4]+0.109*[#   7]
          +0.109*[#   8]
    |psi|^2 = 0.984
==== e(   2) =   -13.48058 eV ==== 
     psi = 0.171*[#   3]+0.171*[#   4]+0.171*[#   7]+0.171*[#   8]+0.151*[#   1]
          +0.151*[#   5]
    |psi|^2 = 0.986
==== e(   3) =    -8.01874 eV ==== 
     psi = 0.249*[#   3]+0.249*[#   4]+0.249*[#   7]+0.249*[#   8]
    |psi|^2 = 0.995
==== e(   4) =    -4.93437 eV ==== 
     psi = 0.498*[#   2]+0.498*[#   6]
    |psi|^2 = 0.996
==== e(   5) =     1.05422 eV ==== 
     psi = 0.472*[#   2]+0.472*[#   6]
    |psi|^2 = 0.944
==== e(   6) =     5.75441 eV ==== 
     psi = 0.322*[#   1]+0.322*[#   5]+0.056*[#   3]+0.056*[#   4]+0.056*[#   7]
          +0.056*[#   8]
    |psi|^2 = 0.868
==== e(   7) =     6.79086 eV ==== 
     psi = 0.004*[#   3]+0.004*[#   4]+0.004*[#   7]+0.004*[#   8]+0.003*[#   1]
          +0.003*[#   5]
    |psi|^2 = 0.022
==== e(   8) =     7.54971 eV ==== 
     psi = 0.002*[#   2]+0.002*[#   6]
    |psi|^2 = 0.004
==== e(   9) =     7.77056 eV ==== 
     psi = 0.002*[#   3]+0.002*[#   4]+0.002*[#   7]+0.002*[#   8]
    |psi|^2 = 0.008
==== e(  10) =     9.65686 eV ==== 
     psi = 0.003*[#   2]+0.003*[#   6]
    |psi|^2 = 0.006
==== e(  11) =    10.50765 eV ==== 
 
    |psi|^2 = 0.005
==== e(  12) =    11.95931 eV ==== 
     psi = 0.012*[#   1]+0.012*[#   5]+0.004*[#   3]+0.004*[#   4]+0.004*[#   7]
          +0.004*[#   8]
    |psi|^2 = 0.041
==== e(  13) =    12.63070 eV ==== 
     psi = 0.008*[#   2]+0.008*[#   6]
    |psi|^2 = 0.016
==== e(  14) =    13.09873 eV ==== 
     psi = 0.005*[#   1]+0.005*[#   5]+0.002*[#   3]+0.002*[#   4]+0.002*[#   7]
          +0.002*[#   8]
    |psi|^2 = 0.018
==== e(  15) =    13.35533 eV ==== 
     psi = 0.001*[#   2]+0.001*[#   6]
    |psi|^2 = 0.003
==== e(  16) =    14.67580 eV ==== 
     psi = 0.004*[#   1]+0.004*[#   5]+0.002*[#   3]+0.002*[#   4]+0.002*[#   7]
          +0.002*[#   8]
    |psi|^2 = 0.014

 k =   0.0000000000  0.5051814855  0.0000000000
==== e(   1) =   -16.89988 eV ==== 
     psi = 0.274*[#   1]+0.274*[#   5]+0.110*[#   3]+0.110*[#   4]+0.110*[#   7]
          +0.110*[#   8]
    |psi|^2 = 0.986
==== e(   2) =   -13.96628 eV ==== 
     psi = 0.171*[#   3]+0.171*[#   4]+0.171*[#   7]+0.171*[#   8]+0.151*[#   1]
          +0.151*[#   5]
    |psi|^2 = 0.985
==== e(   3) =    -8.08953 eV ==== 
     psi = 0.249*[#   3]+0.249*[#   4]+0.249*[#   7]+0.249*[#   8]
    |psi|^2 = 0.995
==== e(   4) =    -4.61195 eV ==== 
     psi = 0.498*[#   2]+0.498*[#   6]
    |psi|^2 = 0.997
==== e(   5) =     0.62184 eV ==== 
     psi = 0.473*[#   2]+0.473*[#   6]
    |psi|^2 = 0.945
==== e(   6) =     5.72182 eV ==== 
     psi = 0.330*[#   1]+0.330*[#   5]+0.055*[#   3]+0.055*[#   4]+0.055*[#   7]
          +0.055*[#   8]
    |psi|^2 = 0.879
==== e(   7) =     7.35825 eV ==== 
     psi = 0.003*[#   3]+0.003*[#   4]+0.003*[#   7]+0.003*[#   8]+0.001*[#   1]
          +0.001*[#   5]
    |psi|^2 = 0.012
==== e(   8) =     8.12061 eV ==== 
     psi = 0.002*[#   2]+0.002*[#   6]
    |psi|^2 = 0.004
==== e(   9) =     8.34482 eV ==== 
     psi = 0.001*[#   3]+0.001*[#   4]+0.001*[#   7]+0.001*[#   8]
    |psi|^2 = 0.005
==== e(  10) =    10.19903 eV ==== 
     psi = 0.003*[#   2]+0.003*[#   6]
    |psi|^2 = 0.007
==== e(  11) =    11.06254 eV ==== 
     psi = 0.002*[#   1]+0.002*[#   5]
    |psi|^2 = 0.008
==== e(  12) =    11.27000 eV ==== 
     psi = 0.006*[#   1]+0.006*[#   5]+0.002*[#   3]+0.002*[#   4]+0.002*[#   7]
          +0.002*[#   8]
    |psi|^2 = 0.021
==== e(  13) =    12.03020 eV ==== 
     psi = 0.005*[#   2]+0.005*[#   6]
    |psi|^2 = 0.009
==== e(  14) =    12.34900 eV ==== 
     psi = 0.003*[#   1]+0.003*[#   5]+0.001*[#   3]+0.001*[#   4]+0.001*[#   7]
          +0.001*[#   8]
    |psi|^2 = 0.012
==== e(  15) =    13.47280 eV ==== 
     psi = 0.007*[#   2]+0.007*[#   6]
    |psi|^2 = 0.013
==== e(  16) =    14.31227 eV ==== 
 
    |psi|^2 = 0.001

 k =   0.0000000000  0.5292377468  0.0000000000
==== e(   1) =   -16.52171 eV ==== 
     psi = 0.278*[#   1]+0.278*[#   5]+0.108*[#   3]+0.108*[#   4]+0.108*[#   7]
          +0.108*[#   8]
    |psi|^2 = 0.988
==== e(   2) =   -14.42027 eV ==== 
     psi = 0.173*[#   3]+0.173*[#   4]+0.173*[#   7]+0.173*[#   8]+0.146*[#   1]
          +0.146*[#   5]
    |psi|^2 = 0.983
==== e(   3) =    -8.14034 eV ==== 
     psi = 0.249*[#   3]+0.249*[#   4]+0.249*[#   7]+0.249*[#   8]
    |psi|^2 = 0.995
==== e(   4) =    -4.34138 eV ==== 
     psi = 0.499*[#   2]+0.499*[#   6]
    |psi|^2 = 0.997
==== e(   5) =     0.27188 eV ==== 
     psi = 0.473*[#   2]+0.473*[#   6]
    |psi|^2 = 0.946
==== e(   6) =     5.69726 eV ==== 
     psi = 0.335*[#   1]+0.335*[#   5]+0.053*[#   3]+0.053*[#   4]+0.053*[#   7]
          +0.053*[#   8]
    |psi|^2 = 0.883
==== e(   7) =     7.95265 eV ==== 
     psi = 0.002*[#   3]+0.002*[#   4]+0.002*[#   7]+0.002*[#   8]
    |psi|^2 = 0.008
==== e(   8) =     8.71657 eV ==== 
     psi = 0.002*[#   2]+0.002*[#   6]
    |psi|^2 = 0.004
==== e(   9) =     8.94638 eV ==== 
 
    |psi|^2 = 0.004
==== e(  10) =    10.56681 eV ==== 
     psi = 0.004*[#   1]+0.004*[#   5]+0.001*[#   3]+0.001*[#   4]+0.001*[#   7]
          +0.001*[#   8]
    |psi|^2 = 0.014
==== e(  11) =    10.74088 eV ==== 
     psi = 0.005*[#   2]+0.005*[#   6]
    |psi|^2 = 0.010
==== e(  12) =    11.37035 eV ==== 
     psi = 0.002*[#   2]+0.002*[#   6]
    |psi|^2 = 0.004
==== e(  13) =    11.60766 eV ==== 
     psi = 0.003*[#   1]+0.003*[#   5]
    |psi|^2 = 0.010
==== e(  14) =    11.66974 eV ==== 
 
    |psi|^2 = 0.004
==== e(  15) =    13.16668 eV ==== 
     psi = 0.006*[#   2]+0.006*[#   6]
    |psi|^2 = 0.012
==== e(  16) =    14.19820 eV ==== 
     psi = 0.009*[#   1]+0.009*[#   5]+0.004*[#   3]+0.004*[#   4]+0.004*[#   7]
          +0.004*[#   8]
    |psi|^2 = 0.034

 k =   0.0000000000  0.5532940080  0.0000000000
==== e(   1) =   -16.18155 eV ==== 
     psi = 0.296*[#   1]+0.296*[#   5]+0.100*[#   3]+0.100*[#   4]+0.100*[#   7]
          +0.100*[#   8]
    |psi|^2 = 0.991
==== e(   2) =   -14.80611 eV ==== 
     psi = 0.181*[#   3]+0.181*[#   4]+0.181*[#   7]+0.181*[#   8]+0.129*[#   1]
          +0.129*[#   5]
    |psi|^2 = 0.980
==== e(   3) =    -8.17093 eV ==== 
     psi = 0.249*[#   3]+0.249*[#   4]+0.249*[#   7]+0.249*[#   8]
    |psi|^2 = 0.995
==== e(   4) =    -4.15591 eV ==== 
     psi = 0.499*[#   2]+0.499*[#   6]
    |psi|^2 = 0.997
==== e(   5) =     0.03840 eV ==== 
     psi = 0.473*[#   2]+0.473*[#   6]
    |psi|^2 = 0.946
==== e(   6) =     5.68213 eV ==== 
     psi = 0.338*[#   1]+0.338*[#   5]+0.052*[#   3]+0.052*[#   4]+0.052*[#   7]
          +0.052*[#   8]
    |psi|^2 = 0.886
==== e(   7) =     8.57151 eV ==== 
     psi = 0.001*[#   3]+0.001*[#   4]+0.001*[#   7]+0.001*[#   8]+0.001*[#   1]
          +0.001*[#   5]
    |psi|^2 = 0.007
==== e(   8) =     9.33532 eV ==== 
     psi = 0.002*[#   2]+0.002*[#   6]
    |psi|^2 = 0.005
==== e(   9) =     9.57215 eV ==== 
 
    |psi|^2 = 0.004
==== e(  10) =     9.88856 eV ==== 
     psi = 0.002*[#   1]+0.002*[#   5]+0.001*[#   3]+0.001*[#   4]+0.001*[#   7]
          +0.001*[#   8]
    |psi|^2 = 0.009
==== e(  11) =    10.63188 eV ==== 
     psi = 0.004*[#   2]+0.004*[#   6]
    |psi|^2 = 0.008
==== e(  12) =    10.91362 eV ==== 
     psi = 0.002*[#   1]+0.002*[#   5]
    |psi|^2 = 0.005
==== e(  13) =    11.36850 eV ==== 
     psi = 0.003*[#   2]+0.003*[#   6]
    |psi|^2 = 0.006
==== e(  14) =    12.26585 eV ==== 
     psi = 0.002*[#   1]+0.002*[#   5]+0.001*[#   3]+0.001*[#   4]+0.001*[#   7]
          +0.001*[#   8]
    |psi|^2 = 0.009
==== e(  15) =    12.62758 eV ==== 
     psi = 0.003*[#   2]+0.003*[#   6]
    |psi|^2 = 0.007
==== e(  16) =    13.54266 eV ==== 
     psi = 0.005*[#   1]+0.005*[#   5]+0.002*[#   3]+0.002*[#   4]+0.002*[#   7]
          +0.002*[#   8]
    |psi|^2 = 0.020

 k =   0.0000000000 -0.5773502692  0.0000000000
==== e(   1) =   -16.01349 eV ==== 
     psi = 0.316*[#   1]+0.316*[#   5]+0.090*[#   3]+0.090*[#   4]+0.090*[#   7]
          +0.090*[#   8]
    |psi|^2 = 0.993
==== e(   2) =   -14.98942 eV ==== 
     psi = 0.190*[#   3]+0.190*[#   4]+0.190*[#   7]+0.190*[#   8]+0.108*[#   1]
          +0.108*[#   5]
    |psi|^2 = 0.978
==== e(   3) =    -8.18114 eV ==== 
     psi = 0.249*[#   3]+0.249*[#   4]+0.249*[#   7]+0.249*[#   8]
    |psi|^2 = 0.995
==== e(   4) =    -4.08906 eV ==== 
     psi = 0.499*[#   2]+0.499*[#   6]
    |psi|^2 = 0.998
==== e(   5) =    -0.04454 eV ==== 
     psi = 0.473*[#   2]+0.473*[#   6]
    |psi|^2 = 0.946
==== e(   6) =     5.67705 eV ==== 
     psi = 0.339*[#   1]+0.339*[#   5]+0.052*[#   3]+0.052*[#   4]+0.052*[#   7]
          +0.052*[#   8]
    |psi|^2 = 0.886
==== e(   7) =     9.16367 eV ==== 
     psi = 0.003*[#   1]+0.003*[#   5]
    |psi|^2 = 0.006
==== e(   8) =     9.26977 eV ==== 
     psi = 0.002*[#   3]+0.002*[#   4]+0.002*[#   7]+0.002*[#   8]
    |psi|^2 = 0.007
==== e(   9) =     9.91368 eV ==== 
     psi = 0.005*[#   2]+0.005*[#   6]
    |psi|^2 = 0.011
==== e(  10) =    10.04634 eV ==== 
 
    |psi|^2 = 0.000
==== e(  11) =    10.20698 eV ==== 
     psi = 0.002*[#   1]+0.002*[#   5]
    |psi|^2 = 0.005
==== e(  12) =    10.25859 eV ==== 
 
    |psi|^2 = 0.003
==== e(  13) =    11.76893 eV ==== 
     psi = 0.007*[#   2]+0.007*[#   6]
    |psi|^2 = 0.014
==== e(  14) =    12.21383 eV ==== 
 
    |psi|^2 = 0.000
==== e(  15) =    12.85913 eV ==== 
     psi = 0.006*[#   1]+0.006*[#   5]+0.002*[#   3]+0.002*[#   4]+0.002*[#   7]
          +0.002*[#   8]
    |psi|^2 = 0.022
==== e(  16) =    12.93242 eV ==== 
 
    |psi|^2 = 0.004

 k =   0.0208333333  0.0360843918  0.0000000000
==== e(   1) =   -21.22820 eV ==== 
     psi = 0.486*[#   1]+0.486*[#   5]+0.003*[#   3]+0.003*[#   4]+0.003*[#   7]
          +0.003*[#   8]
    |psi|^2 = 0.983
==== e(   2) =    -9.32170 eV ==== 
     psi = 0.473*[#   2]+0.473*[#   6]
    |psi|^2 = 0.947
==== e(   3) =    -4.92738 eV ==== 
     psi = 0.248*[#   3]+0.248*[#   4]+0.248*[#   7]+0.248*[#   8]+0.003*[#   1]
          +0.003*[#   5]
    |psi|^2 = 0.997
==== e(   4) =    -4.86897 eV ==== 
     psi = 0.249*[#   3]+0.249*[#   4]+0.249*[#   7]+0.249*[#   8]
    |psi|^2 = 0.997
==== e(   5) =     1.19989 eV ==== 
     psi = 0.002*[#   1]+0.002*[#   5]
    |psi|^2 = 0.006
==== e(   6) =     1.94253 eV ==== 
     psi = 0.010*[#   2]+0.010*[#   6]
    |psi|^2 = 0.019
==== e(   7) =     2.16823 eV ==== 
     psi = 0.002*[#   1]+0.002*[#   5]
    |psi|^2 = 0.005
==== e(   8) =     4.18137 eV ==== 
     psi = 0.010*[#   2]+0.010*[#   6]
    |psi|^2 = 0.019
==== e(   9) =     4.97822 eV ==== 
     psi = 0.002*[#   1]+0.002*[#   5]
    |psi|^2 = 0.003
==== e(  10) =     6.60849 eV ==== 
     psi = 0.231*[#   3]+0.231*[#   4]+0.231*[#   7]+0.231*[#   8]+0.006*[#   1]
          +0.006*[#   5]
    |psi|^2 = 0.935
==== e(  11) =     6.72027 eV ==== 
     psi = 0.235*[#   3]+0.235*[#   4]+0.235*[#   7]+0.235*[#   8]
    |psi|^2 = 0.939
==== e(  12) =     8.13784 eV ==== 
     psi = 0.004*[#   2]+0.004*[#   6]
    |psi|^2 = 0.009
==== e(  13) =     9.28541 eV ==== 
 
    |psi|^2 = 0.003
==== e(  14) =     9.61052 eV ==== 
     psi = 0.496*[#   2]+0.496*[#   6]
    |psi|^2 = 0.992
==== e(  15) =    10.89103 eV ==== 
     psi = 0.485*[#   1]+0.485*[#   5]+0.002*[#   3]+0.002*[#   4]+0.002*[#   7]
          +0.002*[#   8]
    |psi|^2 = 0.976
==== e(  16) =    13.50820 eV ==== 
     psi = 0.002*[#   2]+0.002*[#   6]
    |psi|^2 = 0.004

 k =   0.0208333333  0.0601406530  0.0000000000
==== e(   1) =   -21.18721 eV ==== 
     psi = 0.479*[#   1]+0.479*[#   5]+0.006*[#   3]+0.006*[#   4]+0.006*[#   7]
          +0.006*[#   8]
    |psi|^2 = 0.983
==== e(   2) =    -9.27260 eV ==== 
     psi = 0.474*[#   2]+0.474*[#   6]
    |psi|^2 = 0.948
==== e(   3) =    -5.09096 eV ==== 
     psi = 0.246*[#   3]+0.246*[#   4]+0.246*[#   7]+0.246*[#   8]+0.007*[#   1]
          +0.007*[#   5]
    |psi|^2 = 0.997
==== e(   4) =    -4.95749 eV ==== 
     psi = 0.249*[#   3]+0.249*[#   4]+0.249*[#   7]+0.249*[#   8]
    |psi|^2 = 0.997
==== e(   5) =     1.25637 eV ==== 
     psi = 0.001*[#   1]+0.001*[#   3]+0.001*[#   4]+0.001*[#   5]+0.001*[#   7]
          +0.001*[#   8]
    |psi|^2 = 0.009
==== e(   6) =     1.99920 eV ==== 
     psi = 0.009*[#   2]+0.009*[#   6]
    |psi|^2 = 0.019
==== e(   7) =     2.22466 eV ==== 
     psi = 0.001*[#   1]+0.001*[#   5]
    |psi|^2 = 0.006
==== e(   8) =     4.23722 eV ==== 
     psi = 0.009*[#   2]+0.009*[#   6]
    |psi|^2 = 0.019
==== e(   9) =     5.03342 eV ==== 
     psi = 0.001*[#   1]+0.001*[#   5]
    |psi|^2 = 0.003
==== e(  10) =     6.63411 eV ==== 
     psi = 0.225*[#   3]+0.225*[#   4]+0.225*[#   7]+0.225*[#   8]+0.014*[#   1]
          +0.014*[#   5]
    |psi|^2 = 0.928
==== e(  11) =     6.89140 eV ==== 
     psi = 0.234*[#   3]+0.234*[#   4]+0.234*[#   7]+0.234*[#   8]
    |psi|^2 = 0.938
==== e(  12) =     8.19226 eV ==== 
     psi = 0.004*[#   2]+0.004*[#   6]
    |psi|^2 = 0.009
==== e(  13) =     9.34203 eV ==== 
 
    |psi|^2 = 0.004
==== e(  14) =     9.46825 eV ==== 
     psi = 0.495*[#   2]+0.495*[#   6]
    |psi|^2 = 0.990
==== e(  15) =    10.96482 eV ==== 
     psi = 0.479*[#   1]+0.479*[#   5]+0.004*[#   3]+0.004*[#   4]+0.004*[#   7]
          +0.004*[#   8]
    |psi|^2 = 0.975
==== e(  16) =    13.55876 eV ==== 
     psi = 0.002*[#   2]+0.002*[#   6]
    |psi|^2 = 0.004

 k =   0.0208333333  0.0841969143  0.0000000000
==== e(   1) =   -21.12577 eV ==== 
     psi = 0.469*[#   1]+0.469*[#   5]+0.011*[#   3]+0.011*[#   4]+0.011*[#   7]
          +0.011*[#   8]
    |psi|^2 = 0.983
==== e(   2) =    -9.19904 eV ==== 
     psi = 0.475*[#   2]+0.475*[#   6]
    |psi|^2 = 0.950
==== e(   3) =    -5.32877 eV ==== 
     psi = 0.243*[#   3]+0.243*[#   4]+0.243*[#   7]+0.243*[#   8]+0.013*[#   1]
          +0.013*[#   5]
    |psi|^2 = 0.997
==== e(   4) =    -5.08441 eV ==== 
     psi = 0.249*[#   3]+0.249*[#   4]+0.249*[#   7]+0.249*[#   8]
    |psi|^2 = 0.997
==== e(   5) =     1.34108 eV ==== 
     psi = 0.002*[#   3]+0.002*[#   4]+0.002*[#   7]+0.002*[#   8]+0.001*[#   1]
          +0.001*[#   5]
    |psi|^2 = 0.012
==== e(   6) =     2.08420 eV ==== 
     psi = 0.009*[#   2]+0.009*[#   6]
    |psi|^2 = 0.018
==== e(   7) =     2.30931 eV ==== 
     psi = 0.002*[#   3]+0.002*[#   4]+0.002*[#   7]+0.002*[#   8]
    |psi|^2 = 0.008
==== e(   8) =     4.32097 eV ==== 
     psi = 0.009*[#   2]+0.009*[#   6]
    |psi|^2 = 0.018
==== e(   9) =     5.11624 eV ==== 
     psi = 0.001*[#   1]+0.001*[#   5]
    |psi|^2 = 0.003
==== e(  10) =     6.66353 eV ==== 
     psi = 0.217*[#   3]+0.217*[#   4]+0.217*[#   7]+0.217*[#   8]+0.026*[#   1]
          +0.026*[#   5]
    |psi|^2 = 0.920
==== e(  11) =     7.14265 eV ==== 
     psi = 0.233*[#   3]+0.233*[#   4]+0.233*[#   7]+0.233*[#   8]+0.002*[#   1]
          +0.002*[#   5]
    |psi|^2 = 0.937
==== e(  12) =     8.27376 eV ==== 
     psi = 0.004*[#   2]+0.004*[#   6]
    |psi|^2 = 0.008
==== e(  13) =     9.25901 eV ==== 
     psi = 0.493*[#   2]+0.493*[#   6]
    |psi|^2 = 0.987
==== e(  14) =     9.42671 eV ==== 
     psi = 0.001*[#   3]+0.001*[#   4]+0.001*[#   7]+0.001*[#   8]
    |psi|^2 = 0.006
==== e(  15) =    11.07945 eV ==== 
     psi = 0.470*[#   1]+0.470*[#   5]+0.008*[#   3]+0.008*[#   4]+0.008*[#   7]
          +0.008*[#   8]
    |psi|^2 = 0.973
==== e(  16) =    13.63421 eV ==== 
     psi = 0.002*[#   2]+0.002*[#   6]
    |psi|^2 = 0.003

 k =   0.0208333333  0.1082531755  0.0000000000
==== e(   1) =   -21.04389 eV ==== 
     psi = 0.456*[#   1]+0.456*[#   5]+0.018*[#   3]+0.018*[#   4]+0.018*[#   7]
          +0.018*[#   8]
    |psi|^2 = 0.983
==== e(   2) =    -9.10115 eV ==== 
     psi = 0.476*[#   2]+0.476*[#   6]
    |psi|^2 = 0.952
==== e(   3) =    -5.63299 eV ==== 
     psi = 0.239*[#   3]+0.239*[#   4]+0.239*[#   7]+0.239*[#   8]+0.021*[#   1]
          +0.021*[#   5]
    |psi|^2 = 0.997
==== e(   4) =    -5.24363 eV ==== 
     psi = 0.249*[#   3]+0.249*[#   4]+0.249*[#   7]+0.249*[#   8]
    |psi|^2 = 0.997
==== e(   5) =     1.45403 eV ==== 
     psi = 0.003*[#   3]+0.003*[#   4]+0.003*[#   7]+0.003*[#   8]
    |psi|^2 = 0.015
==== e(   6) =     2.19751 eV ==== 
     psi = 0.009*[#   2]+0.009*[#   6]
    |psi|^2 = 0.017
==== e(   7) =     2.42219 eV ==== 
     psi = 0.002*[#   3]+0.002*[#   4]+0.002*[#   7]+0.002*[#   8]
    |psi|^2 = 0.010
==== e(   8) =     4.43256 eV ==== 
     psi = 0.009*[#   2]+0.009*[#   6]
    |psi|^2 = 0.017
==== e(   9) =     5.22664 eV ==== 
     psi = 0.001*[#   1]+0.001*[#   5]
    |psi|^2 = 0.003
==== e(  10) =     6.68849 eV ==== 
     psi = 0.207*[#   3]+0.207*[#   4]+0.207*[#   7]+0.207*[#   8]+0.042*[#   1]
          +0.042*[#   5]
    |psi|^2 = 0.912
==== e(  11) =     7.46834 eV ==== 
     psi = 0.232*[#   3]+0.232*[#   4]+0.232*[#   7]+0.232*[#   8]+0.003*[#   1]
          +0.003*[#   5]
    |psi|^2 = 0.935
==== e(  12) =     8.38201 eV ==== 
     psi = 0.004*[#   2]+0.004*[#   6]
    |psi|^2 = 0.009
==== e(  13) =     8.98766 eV ==== 
     psi = 0.491*[#   2]+0.491*[#   6]
    |psi|^2 = 0.983
==== e(  14) =     9.53921 eV ==== 
     psi = 0.002*[#   3]+0.002*[#   4]+0.002*[#   7]+0.002*[#   8]
    |psi|^2 = 0.007
==== e(  15) =    11.23771 eV ==== 
     psi = 0.457*[#   1]+0.457*[#   5]+0.014*[#   3]+0.014*[#   4]+0.014*[#   7]
          +0.014*[#   8]
    |psi|^2 = 0.970
==== e(  16) =    13.73409 eV ==== 
     psi = 0.002*[#   2]+0.002*[#   6]
    |psi|^2 = 0.003

 k =   0.0208333333  0.1323094367  0.0000000000
==== e(   1) =   -20.94165 eV ==== 
     psi = 0.442*[#   1]+0.442*[#   5]+0.025*[#   3]+0.025*[#   4]+0.025*[#   7]
          +0.025*[#   8]
    |psi|^2 = 0.983
==== e(   2) =    -8.97909 eV ==== 
     psi = 0.477*[#   2]+0.477*[#   6]
    |psi|^2 = 0.955
==== e(   3) =    -5.99490 eV ==== 
     psi = 0.234*[#   3]+0.234*[#   4]+0.234*[#   7]+0.234*[#   8]+0.030*[#   1]
          +0.030*[#   5]
    |psi|^2 = 0.996
==== e(   4) =    -5.42857 eV ==== 
     psi = 0.249*[#   3]+0.249*[#   4]+0.249*[#   7]+0.249*[#   8]
    |psi|^2 = 0.997
==== e(   5) =     1.59521 eV ==== 
     psi = 0.005*[#   3]+0.005*[#   4]+0.005*[#   7]+0.005*[#   8]
    |psi|^2 = 0.019
==== e(   6) =     2.33909 eV ==== 
     psi = 0.008*[#   2]+0.008*[#   6]
    |psi|^2 = 0.016
==== e(   7) =     2.56330 eV ==== 
     psi = 0.003*[#   3]+0.003*[#   4]+0.003*[#   7]+0.003*[#   8]
    |psi|^2 = 0.012
==== e(   8) =     4.57190 eV ==== 
     psi = 0.008*[#   2]+0.008*[#   6]
    |psi|^2 = 0.016
==== e(   9) =     5.36448 eV ==== 
     psi = 0.001*[#   1]+0.001*[#   5]
    |psi|^2 = 0.004
==== e(  10) =     6.70181 eV ==== 
     psi = 0.195*[#   3]+0.195*[#   4]+0.195*[#   7]+0.195*[#   8]+0.061*[#   1]
          +0.061*[#   5]
    |psi|^2 = 0.903
==== e(  11) =     7.86171 eV ==== 
     psi = 0.231*[#   3]+0.231*[#   4]+0.231*[#   7]+0.231*[#   8]+0.005*[#   1]
          +0.005*[#   5]
    |psi|^2 = 0.932
==== e(  12) =     8.51316 eV ==== 
     psi = 0.018*[#   2]+0.018*[#   6]
    |psi|^2 = 0.037
==== e(  13) =     8.66328 eV ==== 
     psi = 0.475*[#   2]+0.475*[#   6]
    |psi|^2 = 0.950
==== e(  14) =     9.67922 eV ==== 
     psi = 0.002*[#   3]+0.002*[#   4]+0.002*[#   7]+0.002*[#   8]
    |psi|^2 = 0.008
==== e(  15) =    11.44076 eV ==== 
     psi = 0.439*[#   1]+0.439*[#   5]+0.022*[#   3]+0.022*[#   4]+0.022*[#   7]
          +0.022*[#   8]
    |psi|^2 = 0.966
==== e(  16) =    13.85775 eV ==== 
     psi = 0.002*[#   2]+0.002*[#   6]
    |psi|^2 = 0.003

 k =   0.0208333333  0.1563656979  0.0000000000
==== e(   1) =   -20.81911 eV ==== 
     psi = 0.427*[#   1]+0.427*[#   5]+0.032*[#   3]+0.032*[#   4]+0.032*[#   7]
          +0.032*[#   8]
    |psi|^2 = 0.982
==== e(   2) =    -8.83308 eV ==== 
     psi = 0.479*[#   2]+0.479*[#   6]
    |psi|^2 = 0.958
==== e(   3) =    -6.40535 eV ==== 
     psi = 0.229*[#   3]+0.229*[#   4]+0.229*[#   7]+0.229*[#   8]+0.039*[#   1]
          +0.039*[#   5]
    |psi|^2 = 0.996
==== e(   4) =    -5.63234 eV ==== 
     psi = 0.249*[#   3]+0.249*[#   4]+0.249*[#   7]+0.249*[#   8]
    |psi|^2 = 0.997
==== e(   5) =     1.76461 eV ==== 
     psi = 0.005*[#   3]+0.005*[#   4]+0.005*[#   7]+0.005*[#   8]
    |psi|^2 = 0.022
==== e(   6) =     2.50890 eV ==== 
     psi = 0.008*[#   2]+0.008*[#   6]
    |psi|^2 = 0.015
==== e(   7) =     2.73264 eV ==== 
     psi = 0.003*[#   3]+0.003*[#   4]+0.003*[#   7]+0.003*[#   8]
    |psi|^2 = 0.013
==== e(   8) =     4.73886 eV ==== 
     psi = 0.008*[#   2]+0.008*[#   6]
    |psi|^2 = 0.015
==== e(   9) =     5.52942 eV ==== 
     psi = 0.002*[#   1]+0.002*[#   5]
    |psi|^2 = 0.004
==== e(  10) =     6.69948 eV ==== 
     psi = 0.182*[#   3]+0.182*[#   4]+0.182*[#   7]+0.182*[#   8]+0.084*[#   1]
          +0.084*[#   5]
    |psi|^2 = 0.896
==== e(  11) =     8.27467 eV ==== 
     psi = 0.482*[#   2]+0.482*[#   6]
    |psi|^2 = 0.965
==== e(  12) =     8.31590 eV ==== 
     psi = 0.229*[#   3]+0.229*[#   4]+0.229*[#   7]+0.229*[#   8]+0.006*[#   1]
          +0.006*[#   5]
    |psi|^2 = 0.930
==== e(  13) =     8.68421 eV ==== 
     psi = 0.009*[#   2]+0.009*[#   6]
    |psi|^2 = 0.018
==== e(  14) =     9.84646 eV ==== 
     psi = 0.002*[#   3]+0.002*[#   4]+0.002*[#   7]+0.002*[#   8]
    |psi|^2 = 0.009
==== e(  15) =    11.68745 eV ==== 
     psi = 0.418*[#   1]+0.418*[#   5]+0.031*[#   3]+0.031*[#   4]+0.031*[#   7]
          +0.031*[#   8]
    |psi|^2 = 0.959
==== e(  16) =    14.00427 eV ==== 
     psi = 0.002*[#   2]+0.002*[#   6]
    |psi|^2 = 0.003

 k =   0.0208333333  0.1804219591  0.0000000000
==== e(   1) =   -20.67634 eV ==== 
     psi = 0.412*[#   1]+0.412*[#   5]+0.040*[#   3]+0.040*[#   4]+0.040*[#   7]
          +0.040*[#   8]
    |psi|^2 = 0.982
==== e(   2) =    -8.66339 eV ==== 
     psi = 0.481*[#   2]+0.481*[#   6]
    |psi|^2 = 0.961
==== e(   3) =    -6.85568 eV ==== 
     psi = 0.224*[#   3]+0.224*[#   4]+0.224*[#   7]+0.224*[#   8]+0.049*[#   1]
          +0.049*[#   5]
    |psi|^2 = 0.995
==== e(   4) =    -5.84871 eV ==== 
     psi = 0.249*[#   3]+0.249*[#   4]+0.249*[#   7]+0.249*[#   8]
    |psi|^2 = 0.997
==== e(   5) =     1.96221 eV ==== 
     psi = 0.006*[#   3]+0.006*[#   4]+0.006*[#   7]+0.006*[#   8]
    |psi|^2 = 0.024
==== e(   6) =     2.70687 eV ==== 
     psi = 0.007*[#   2]+0.007*[#   6]
    |psi|^2 = 0.014
==== e(   7) =     2.93019 eV ==== 
     psi = 0.004*[#   3]+0.004*[#   4]+0.004*[#   7]+0.004*[#   8]
    |psi|^2 = 0.014
==== e(   8) =     4.93320 eV ==== 
     psi = 0.007*[#   2]+0.007*[#   6]
    |psi|^2 = 0.014
==== e(   9) =     5.72066 eV ==== 
     psi = 0.003*[#   1]+0.003*[#   5]
    |psi|^2 = 0.006
==== e(  10) =     6.68053 eV ==== 
     psi = 0.169*[#   3]+0.169*[#   4]+0.169*[#   7]+0.169*[#   8]+0.107*[#   1]
          +0.107*[#   5]
    |psi|^2 = 0.890
==== e(  11) =     7.85073 eV ==== 
     psi = 0.483*[#   2]+0.483*[#   6]
    |psi|^2 = 0.967
==== e(  12) =     8.82371 eV ==== 
     psi = 0.228*[#   3]+0.228*[#   4]+0.228*[#   7]+0.228*[#   8]+0.008*[#   1]
          +0.008*[#   5]
    |psi|^2 = 0.926
==== e(  13) =     8.87230 eV ==== 
     psi = 0.005*[#   2]+0.005*[#   6]
    |psi|^2 = 0.010
==== e(  14) =    10.04076 eV ==== 
     psi = 0.002*[#   3]+0.002*[#   4]+0.002*[#   7]+0.002*[#   8]
    |psi|^2 = 0.010
==== e(  15) =    11.97371 eV ==== 
     psi = 0.394*[#   1]+0.394*[#   5]+0.040*[#   3]+0.040*[#   4]+0.040*[#   7]
          +0.040*[#   8]
    |psi|^2 = 0.950
==== e(  16) =    14.17238 eV ==== 
     psi = 0.002*[#   2]+0.002*[#   6]
    |psi|^2 = 0.003

 k =   0.0208333333  0.2044782203  0.0000000000
==== e(   1) =   -20.51347 eV ==== 
     psi = 0.396*[#   1]+0.396*[#   5]+0.047*[#   3]+0.047*[#   4]+0.047*[#   7]
          +0.047*[#   8]
    |psi|^2 = 0.982
==== e(   2) =    -8.47037 eV ==== 
     psi = 0.483*[#   2]+0.483*[#   6]
    |psi|^2 = 0.965
==== e(   3) =    -7.33781 eV ==== 
     psi = 0.219*[#   3]+0.219*[#   4]+0.219*[#   7]+0.219*[#   8]+0.059*[#   1]
          +0.059*[#   5]
    |psi|^2 = 0.994
==== e(   4) =    -6.07206 eV ==== 
     psi = 0.249*[#   3]+0.249*[#   4]+0.249*[#   7]+0.249*[#   8]
    |psi|^2 = 0.997
==== e(   5) =     2.18797 eV ==== 
     psi = 0.006*[#   3]+0.006*[#   4]+0.006*[#   7]+0.006*[#   8]
    |psi|^2 = 0.026
==== e(   6) =     2.93289 eV ==== 
     psi = 0.006*[#   2]+0.006*[#   6]
    |psi|^2 = 0.013
==== e(   7) =     3.15594 eV ==== 
     psi = 0.004*[#   3]+0.004*[#   4]+0.004*[#   7]+0.004*[#   8]
    |psi|^2 = 0.015
==== e(   8) =     5.15439 eV ==== 
     psi = 0.007*[#   2]+0.007*[#   6]
    |psi|^2 = 0.013
==== e(   9) =     5.93590 eV ==== 
     psi = 0.005*[#   1]+0.005*[#   5]
    |psi|^2 = 0.013
==== e(  10) =     6.64799 eV ==== 
     psi = 0.155*[#   3]+0.155*[#   4]+0.155*[#   7]+0.155*[#   8]+0.130*[#   1]
          +0.130*[#   5]
    |psi|^2 = 0.879
==== e(  11) =     7.38746 eV ==== 
     psi = 0.482*[#   2]+0.482*[#   6]
    |psi|^2 = 0.963
==== e(  12) =     9.08779 eV ==== 
     psi = 0.004*[#   2]+0.004*[#   6]
    |psi|^2 = 0.009
==== e(  13) =     9.37770 eV ==== 
     psi = 0.226*[#   3]+0.226*[#   4]+0.226*[#   7]+0.226*[#   8]+0.009*[#   1]
          +0.009*[#   5]
    |psi|^2 = 0.923
==== e(  14) =    10.26207 eV ==== 
     psi = 0.002*[#   3]+0.002*[#   4]+0.002*[#   7]+0.002*[#   8]
    |psi|^2 = 0.010
==== e(  15) =    12.29286 eV ==== 
     psi = 0.369*[#   1]+0.369*[#   5]+0.050*[#   3]+0.050*[#   4]+0.050*[#   7]
          +0.050*[#   8]
    |psi|^2 = 0.937
==== e(  16) =    14.36023 eV ==== 
     psi = 0.002*[#   2]+0.002*[#   6]
    |psi|^2 = 0.003

 k =   0.0208333333  0.2285344816  0.0000000000
==== e(   1) =   -20.33063 eV ==== 
     psi = 0.381*[#   1]+0.381*[#   5]+0.055*[#   3]+0.055*[#   4]+0.055*[#   7]
          +0.055*[#   8]
    |psi|^2 = 0.981
==== e(   2) =    -8.25446 eV ==== 
     psi = 0.485*[#   2]+0.485*[#   6]
    |psi|^2 = 0.969
==== e(   3) =    -7.84459 eV ==== 
     psi = 0.214*[#   3]+0.214*[#   4]+0.214*[#   7]+0.214*[#   8]+0.069*[#   1]
          +0.069*[#   5]
    |psi|^2 = 0.993
==== e(   4) =    -6.29745 eV ==== 
     psi = 0.249*[#   3]+0.249*[#   4]+0.249*[#   7]+0.249*[#   8]
    |psi|^2 = 0.997
==== e(   5) =     2.44187 eV ==== 
     psi = 0.007*[#   3]+0.007*[#   4]+0.007*[#   7]+0.007*[#   8]
    |psi|^2 = 0.026
==== e(   6) =     3.18678 eV ==== 
     psi = 0.006*[#   2]+0.006*[#   6]
    |psi|^2 = 0.011
==== e(   7) =     3.40985 eV ==== 
     psi = 0.004*[#   3]+0.004*[#   4]+0.004*[#   7]+0.004*[#   8]
    |psi|^2 = 0.015
==== e(   8) =     5.40087 eV ==== 
     psi = 0.007*[#   2]+0.007*[#   6]
    |psi|^2 = 0.014
==== e(   9) =     6.16614 eV ==== 
     psi = 0.017*[#   1]+0.017*[#   5]+0.005*[#   3]+0.005*[#   4]+0.005*[#   7]
          +0.005*[#   8]
    |psi|^2 = 0.055
==== e(  10) =     6.61344 eV ==== 
     psi = 0.143*[#   1]+0.143*[#   5]+0.138*[#   3]+0.138*[#   4]+0.138*[#   7]
          +0.138*[#   8]
    |psi|^2 = 0.836
==== e(  11) =     6.89324 eV ==== 
     psi = 0.479*[#   2]+0.479*[#   6]
    |psi|^2 = 0.957
==== e(  12) =     9.32961 eV ==== 
     psi = 0.004*[#   2]+0.004*[#   6]
    |psi|^2 = 0.008
==== e(  13) =     9.97107 eV ==== 
     psi = 0.224*[#   3]+0.224*[#   4]+0.224*[#   7]+0.224*[#   8]+0.011*[#   1]
          +0.011*[#   5]
    |psi|^2 = 0.919
==== e(  14) =    10.51051 eV ==== 
     psi = 0.002*[#   3]+0.002*[#   4]+0.002*[#   7]+0.002*[#   8]
    |psi|^2 = 0.010
==== e(  15) =    12.63647 eV ==== 
     psi = 0.342*[#   1]+0.342*[#   5]+0.059*[#   3]+0.059*[#   4]+0.059*[#   7]
          +0.059*[#   8]
    |psi|^2 = 0.920
==== e(  16) =    14.56503 eV ==== 
     psi = 0.002*[#   2]+0.002*[#   6]
    |psi|^2 = 0.003

 k =   0.0208333333  0.2525907428  0.0000000000
==== e(   1) =   -20.12794 eV ==== 
     psi = 0.367*[#   1]+0.367*[#   5]+0.062*[#   3]+0.062*[#   4]+0.062*[#   7]
          +0.062*[#   8]
    |psi|^2 = 0.981
==== e(   2) =    -8.36975 eV ==== 
     psi = 0.209*[#   3]+0.209*[#   4]+0.209*[#   7]+0.209*[#   8]+0.079*[#   1]
          +0.079*[#   5]
    |psi|^2 = 0.993
==== e(   3) =    -8.01620 eV ==== 
     psi = 0.487*[#   2]+0.487*[#   6]
    |psi|^2 = 0.973
==== e(   4) =    -6.52069 eV ==== 
     psi = 0.249*[#   3]+0.249*[#   4]+0.249*[#   7]+0.249*[#   8]
    |psi|^2 = 0.997
==== e(   5) =     2.72384 eV ==== 
     psi = 0.006*[#   3]+0.006*[#   4]+0.006*[#   7]+0.006*[#   8]
    |psi|^2 = 0.026
==== e(   6) =     3.46813 eV ==== 
     psi = 0.005*[#   2]+0.005*[#   6]
    |psi|^2 = 0.011
==== e(   7) =     3.69187 eV ==== 
     psi = 0.003*[#   3]+0.003*[#   4]+0.003*[#   7]+0.003*[#   8]
    |psi|^2 = 0.014
==== e(   8) =     5.66417 eV ==== 
     psi = 0.017*[#   2]+0.017*[#   6]
    |psi|^2 = 0.034
==== e(   9) =     6.35494 eV ==== 
     psi = 0.089*[#   1]+0.089*[#   5]+0.046*[#   3]+0.046*[#   4]+0.046*[#   7]
          +0.046*[#   8]
    |psi|^2 = 0.362
==== e(  10) =     6.38271 eV ==== 
     psi = 0.466*[#   2]+0.466*[#   6]
    |psi|^2 = 0.932
==== e(  11) =     6.63658 eV ==== 
     psi = 0.094*[#   1]+0.094*[#   5]+0.085*[#   3]+0.085*[#   4]+0.085*[#   7]
          +0.085*[#   8]
    |psi|^2 = 0.529
==== e(  12) =     9.59722 eV ==== 
     psi = 0.004*[#   2]+0.004*[#   6]
    |psi|^2 = 0.007
==== e(  13) =    10.59537 eV ==== 
     psi = 0.219*[#   3]+0.219*[#   4]+0.219*[#   7]+0.219*[#   8]+0.014*[#   1]
          +0.014*[#   5]
    |psi|^2 = 0.902
==== e(  14) =    10.78748 eV ==== 
     psi = 0.005*[#   3]+0.005*[#   4]+0.005*[#   7]+0.005*[#   8]
    |psi|^2 = 0.022
==== e(  15) =    12.99410 eV ==== 
     psi = 0.313*[#   1]+0.313*[#   5]+0.067*[#   3]+0.067*[#   4]+0.067*[#   7]
          +0.067*[#   8]
    |psi|^2 = 0.896
==== e(  16) =    14.78239 eV ==== 
     psi = 0.002*[#   2]+0.002*[#   6]
    |psi|^2 = 0.004

 k =   0.0208333333  0.2766470040  0.0000000000
==== e(   1) =   -19.90561 eV ==== 
     psi = 0.353*[#   1]+0.353*[#   5]+0.069*[#   3]+0.069*[#   4]+0.069*[#   7]
          +0.069*[#   8]
    |psi|^2 = 0.981
==== e(   2) =    -8.90782 eV ==== 
     psi = 0.204*[#   3]+0.204*[#   4]+0.204*[#   7]+0.204*[#   8]+0.089*[#   1]
          +0.089*[#   5]
    |psi|^2 = 0.992
==== e(   3) =    -7.75629 eV ==== 
     psi = 0.488*[#   2]+0.488*[#   6]
    |psi|^2 = 0.977
==== e(   4) =    -6.73826 eV ==== 
     psi = 0.249*[#   3]+0.249*[#   4]+0.249*[#   7]+0.249*[#   8]
    |psi|^2 = 0.997
==== e(   5) =     3.03382 eV ==== 
     psi = 0.006*[#   3]+0.006*[#   4]+0.006*[#   7]+0.006*[#   8]
    |psi|^2 = 0.024
==== e(   6) =     3.77588 eV ==== 
     psi = 0.005*[#   2]+0.005*[#   6]
    |psi|^2 = 0.011
==== e(   7) =     4.00192 eV ==== 
     psi = 0.003*[#   3]+0.003*[#   4]+0.003*[#   7]+0.003*[#   8]
    |psi|^2 = 0.012
==== e(   8) =     5.73411 eV ==== 
     psi = 0.357*[#   2]+0.357*[#   6]
    |psi|^2 = 0.714
==== e(   9) =     6.07270 eV ==== 
     psi = 0.123*[#   2]+0.123*[#   6]
    |psi|^2 = 0.246
==== e(  10) =     6.37497 eV ==== 
     psi = 0.183*[#   1]+0.183*[#   5]+0.096*[#   3]+0.096*[#   4]+0.096*[#   7]
          +0.096*[#   8]
    |psi|^2 = 0.752
==== e(  11) =     6.84832 eV ==== 
     psi = 0.024*[#   3]+0.024*[#   4]+0.024*[#   7]+0.024*[#   8]+0.022*[#   1]
          +0.022*[#   5]
    |psi|^2 = 0.141
==== e(  12) =     9.89005 eV ==== 
     psi = 0.003*[#   2]+0.003*[#   6]
    |psi|^2 = 0.007
==== e(  13) =    11.08192 eV ==== 
     psi = 0.006*[#   3]+0.006*[#   4]+0.006*[#   7]+0.006*[#   8]+0.003*[#   1]
          +0.003*[#   5]
    |psi|^2 = 0.030
==== e(  14) =    11.25415 eV ==== 
     psi = 0.215*[#   3]+0.215*[#   4]+0.215*[#   7]+0.215*[#   8]+0.015*[#   1]
          +0.015*[#   5]
    |psi|^2 = 0.890
==== e(  15) =    13.35322 eV ==== 
     psi = 0.284*[#   1]+0.284*[#   5]+0.075*[#   3]+0.075*[#   4]+0.075*[#   7]
          +0.075*[#   8]
    |psi|^2 = 0.866
==== e(  16) =    15.00500 eV ==== 
     psi = 0.002*[#   2]+0.002*[#   6]
    |psi|^2 = 0.005

 k =   0.0208333333  0.3007032652  0.0000000000
==== e(   1) =   -19.66383 eV ==== 
     psi = 0.340*[#   1]+0.340*[#   5]+0.075*[#   3]+0.075*[#   4]+0.075*[#   7]
          +0.075*[#   8]
    |psi|^2 = 0.981
==== e(   2) =    -9.45417 eV ==== 
     psi = 0.199*[#   3]+0.199*[#   4]+0.199*[#   7]+0.199*[#   8]+0.098*[#   1]
          +0.098*[#   5]
    |psi|^2 = 0.992
==== e(   3) =    -7.47559 eV ==== 
     psi = 0.490*[#   2]+0.490*[#   6]
    |psi|^2 = 0.981
==== e(   4) =    -6.94724 eV ==== 
     psi = 0.249*[#   3]+0.249*[#   4]+0.249*[#   7]+0.249*[#   8]+0.001*[#   1]
          +0.001*[#   5]
    |psi|^2 = 0.996
==== e(   5) =     3.37172 eV ==== 
     psi = 0.006*[#   3]+0.006*[#   4]+0.006*[#   7]+0.006*[#   8]
    |psi|^2 = 0.022
==== e(   6) =     4.10564 eV ==== 
     psi = 0.009*[#   2]+0.009*[#   6]
    |psi|^2 = 0.019
==== e(   7) =     4.33987 eV ==== 
     psi = 0.002*[#   3]+0.002*[#   4]+0.002*[#   7]+0.002*[#   8]
    |psi|^2 = 0.010
==== e(   8) =     5.23409 eV ==== 
     psi = 0.457*[#   2]+0.457*[#   6]
    |psi|^2 = 0.914
==== e(   9) =     6.31764 eV ==== 
     psi = 0.218*[#   1]+0.218*[#   5]+0.100*[#   3]+0.100*[#   4]+0.100*[#   7]
          +0.100*[#   8]
    |psi|^2 = 0.837
==== e(  10) =     6.34944 eV ==== 
     psi = 0.016*[#   2]+0.016*[#   6]
    |psi|^2 = 0.033
==== e(  11) =     7.16066 eV ==== 
     psi = 0.011*[#   3]+0.011*[#   4]+0.011*[#   7]+0.011*[#   8]+0.007*[#   1]
          +0.007*[#   5]
    |psi|^2 = 0.058
==== e(  12) =    10.20735 eV ==== 
     psi = 0.003*[#   2]+0.003*[#   6]
    |psi|^2 = 0.006
==== e(  13) =    11.41259 eV ==== 
     psi = 0.002*[#   1]+0.002*[#   3]+0.002*[#   4]+0.002*[#   5]+0.002*[#   7]
          +0.002*[#   8]
    |psi|^2 = 0.011
==== e(  14) =    11.91989 eV ==== 
     psi = 0.216*[#   3]+0.216*[#   4]+0.216*[#   7]+0.216*[#   8]+0.021*[#   1]
          +0.021*[#   5]
    |psi|^2 = 0.904
==== e(  15) =    13.69817 eV ==== 
     psi = 0.250*[#   1]+0.250*[#   5]+0.081*[#   3]+0.081*[#   4]+0.081*[#   7]
          +0.081*[#   8]
    |psi|^2 = 0.823
==== e(  16) =    15.21978 eV ==== 
     psi = 0.003*[#   2]+0.003*[#   6]
    |psi|^2 = 0.007

 k =   0.0208333333  0.3247595264  0.0000000000
==== e(   1) =   -19.40285 eV ==== 
     psi = 0.328*[#   1]+0.328*[#   5]+0.081*[#   3]+0.081*[#   4]+0.081*[#   7]
          +0.081*[#   8]
    |psi|^2 = 0.981
==== e(   2) =   -10.00468 eV ==== 
     psi = 0.194*[#   3]+0.194*[#   4]+0.194*[#   7]+0.194*[#   8]+0.107*[#   1]
          +0.107*[#   5]
    |psi|^2 = 0.991
==== e(   3) =    -7.17523 eV ==== 
     psi = 0.492*[#   2]+0.492*[#   6]
    |psi|^2 = 0.984
==== e(   4) =    -7.14519 eV ==== 
     psi = 0.249*[#   3]+0.249*[#   4]+0.249*[#   7]+0.249*[#   8]+0.001*[#   1]
          +0.001*[#   5]
    |psi|^2 = 0.996
==== e(   5) =     3.73740 eV ==== 
     psi = 0.005*[#   3]+0.005*[#   4]+0.005*[#   7]+0.005*[#   8]
    |psi|^2 = 0.020
==== e(   6) =     4.39693 eV ==== 
     psi = 0.124*[#   2]+0.124*[#   6]
    |psi|^2 = 0.248
==== e(   7) =     4.70544 eV ==== 
     psi = 0.002*[#   3]+0.002*[#   4]+0.002*[#   7]+0.002*[#   8]
    |psi|^2 = 0.008
==== e(   8) =     4.74138 eV ==== 
     psi = 0.348*[#   2]+0.348*[#   6]
    |psi|^2 = 0.696
==== e(   9) =     6.24535 eV ==== 
     psi = 0.240*[#   1]+0.240*[#   5]+0.096*[#   3]+0.096*[#   4]+0.096*[#   7]
          +0.096*[#   8]
    |psi|^2 = 0.864
==== e(  10) =     6.70149 eV ==== 
     psi = 0.008*[#   2]+0.008*[#   6]
    |psi|^2 = 0.017
==== e(  11) =     7.51448 eV ==== 
     psi = 0.006*[#   3]+0.006*[#   4]+0.006*[#   7]+0.006*[#   8]+0.004*[#   1]
          +0.004*[#   5]
    |psi|^2 = 0.033
==== e(  12) =    10.54809 eV ==== 
     psi = 0.003*[#   2]+0.003*[#   6]
    |psi|^2 = 0.006
==== e(  13) =    11.76760 eV ==== 
     psi = 0.002*[#   1]+0.002*[#   5]+0.001*[#   3]+0.001*[#   4]+0.001*[#   7]
          +0.001*[#   8]
    |psi|^2 = 0.009
==== e(  14) =    12.59125 eV ==== 
     psi = 0.209*[#   3]+0.209*[#   4]+0.209*[#   7]+0.209*[#   8]+0.029*[#   1]
          +0.029*[#   5]
    |psi|^2 = 0.896
==== e(  15) =    14.00792 eV ==== 
     psi = 0.209*[#   1]+0.209*[#   5]+0.086*[#   3]+0.086*[#   4]+0.086*[#   7]
          +0.086*[#   8]
    |psi|^2 = 0.764
==== e(  16) =    15.40151 eV ==== 
     psi = 0.005*[#   2]+0.005*[#   6]
    |psi|^2 = 0.010

 k =   0.0208333333  0.3488157876  0.0000000000
==== e(   1) =   -19.12298 eV ==== 
     psi = 0.317*[#   1]+0.317*[#   5]+0.087*[#   3]+0.087*[#   4]+0.087*[#   7]
          +0.087*[#   8]
    |psi|^2 = 0.981
==== e(   2) =   -10.55590 eV ==== 
     psi = 0.190*[#   3]+0.190*[#   4]+0.190*[#   7]+0.190*[#   8]+0.116*[#   1]
          +0.116*[#   5]
    |psi|^2 = 0.990
==== e(   3) =    -7.33009 eV ==== 
     psi = 0.249*[#   3]+0.249*[#   4]+0.249*[#   7]+0.249*[#   8]+0.001*[#   1]
          +0.001*[#   5]
    |psi|^2 = 0.996
==== e(   4) =    -6.85673 eV ==== 
     psi = 0.494*[#   2]+0.494*[#   6]
    |psi|^2 = 0.987
==== e(   5) =     4.03591 eV ==== 
     psi = 0.450*[#   2]+0.450*[#   6]
    |psi|^2 = 0.901
==== e(   6) =     4.13067 eV ==== 
     psi = 0.004*[#   3]+0.004*[#   4]+0.004*[#   7]+0.004*[#   8]
    |psi|^2 = 0.016
==== e(   7) =     4.91845 eV ==== 
     psi = 0.022*[#   2]+0.022*[#   6]
    |psi|^2 = 0.045
==== e(   8) =     5.09787 eV ==== 
     psi = 0.001*[#   1]+0.001*[#   5]
    |psi|^2 = 0.007
==== e(   9) =     6.17134 eV ==== 
     psi = 0.258*[#   1]+0.258*[#   5]+0.090*[#   3]+0.090*[#   4]+0.090*[#   7]
          +0.090*[#   8]
    |psi|^2 = 0.877
==== e(  10) =     7.08531 eV ==== 
     psi = 0.006*[#   2]+0.006*[#   6]
    |psi|^2 = 0.012
==== e(  11) =     7.89994 eV ==== 
     psi = 0.004*[#   3]+0.004*[#   4]+0.004*[#   7]+0.004*[#   8]+0.002*[#   1]
          +0.002*[#   5]
[...]
     psi = 0.090*[#   1]+0.090*[#   5]+0.042*[#   3]+0.042*[#   4]+0.042*[#   7]
          +0.042*[#   8]
    |psi|^2 = 0.350
==== e(  12) =    12.75161 eV ==== 
 
    |psi|^2 = 0.000
==== e(  13) =    12.98528 eV ==== 
     psi = 0.006*[#   1]+0.006*[#   5]+0.002*[#   3]+0.002*[#   4]+0.002*[#   7]
          +0.002*[#   8]
    |psi|^2 = 0.022
==== e(  14) =    13.46014 eV ==== 
     psi = 0.017*[#   1]+0.017*[#   5]+0.009*[#   3]+0.009*[#   4]+0.009*[#   7]
          +0.009*[#   8]
    |psi|^2 = 0.071
==== e(  15) =    13.89553 eV ==== 
 
    |psi|^2 = 0.000
==== e(  16) =    14.56213 eV ==== 
     psi = 0.040*[#   1]+0.040*[#   5]+0.021*[#   3]+0.021*[#   4]+0.021*[#   7]
          +0.021*[#   8]
    |psi|^2 = 0.166

 k =   0.2708333333  0.5412658774  0.0000000000
==== e(   1) =   -15.22371 eV ==== 
     psi = 0.245*[#   1]+0.245*[#   5]+0.125*[#   3]+0.125*[#   4]+0.125*[#   7]
          +0.125*[#   8]
    |psi|^2 = 0.991
==== e(   2) =   -13.81818 eV ==== 
     psi = 0.190*[#   1]+0.190*[#   5]+0.153*[#   3]+0.153*[#   4]+0.153*[#   7]
          +0.153*[#   8]
    |psi|^2 = 0.991
==== e(   3) =   -11.77050 eV ==== 
     psi = 0.231*[#   3]+0.231*[#   4]+0.231*[#   7]+0.231*[#   8]+0.031*[#   1]
          +0.031*[#   5]
    |psi|^2 = 0.984
==== e(   4) =    -2.74170 eV ==== 
     psi = 0.498*[#   2]+0.498*[#   6]
    |psi|^2 = 0.995
==== e(   5) =    -0.74139 eV ==== 
     psi = 0.494*[#   2]+0.494*[#   6]
    |psi|^2 = 0.987
==== e(   6) =     9.03792 eV ==== 
     psi = 0.001*[#   2]+0.001*[#   6]
    |psi|^2 = 0.002
==== e(   7) =     9.89703 eV ==== 
     psi = 0.014*[#   1]+0.014*[#   5]+0.003*[#   3]+0.003*[#   4]+0.003*[#   7]
          +0.003*[#   8]
    |psi|^2 = 0.040
==== e(   8) =    10.87602 eV ==== 
     psi = 0.145*[#   1]+0.145*[#   5]+0.048*[#   3]+0.048*[#   4]+0.048*[#   7]
          +0.048*[#   8]
    |psi|^2 = 0.481
==== e(   9) =    11.00003 eV ==== 
     psi = 0.065*[#   1]+0.065*[#   5]+0.021*[#   3]+0.021*[#   4]+0.021*[#   7]
          +0.021*[#   8]
    |psi|^2 = 0.215
==== e(  10) =    11.18175 eV ==== 
 
    |psi|^2 = 0.000
==== e(  11) =    11.45852 eV ==== 
     psi = 0.039*[#   1]+0.039*[#   5]+0.020*[#   3]+0.020*[#   4]+0.020*[#   7]
          +0.020*[#   8]
    |psi|^2 = 0.158
==== e(  12) =    12.82444 eV ==== 
     psi = 0.019*[#   1]+0.019*[#   5]+0.009*[#   3]+0.009*[#   4]+0.009*[#   7]
          +0.009*[#   8]
    |psi|^2 = 0.074
==== e(  13) =    12.94490 eV ==== 
 
    |psi|^2 = 0.000
==== e(  14) =    13.46533 eV ==== 
     psi = 0.018*[#   1]+0.018*[#   5]+0.008*[#   3]+0.008*[#   4]+0.008*[#   7]
          +0.008*[#   8]
    |psi|^2 = 0.070
==== e(  15) =    13.53047 eV ==== 
 
    |psi|^2 = 0.000
==== e(  16) =    14.34669 eV ==== 
     psi = 0.068*[#   1]+0.068*[#   5]+0.038*[#   3]+0.038*[#   4]+0.038*[#   7]
          +0.038*[#   8]
    |psi|^2 = 0.287

 k =   0.2708333333  0.5653221386  0.0000000000
==== e(   1) =   -14.95197 eV ==== 
     psi = 0.254*[#   1]+0.254*[#   5]+0.121*[#   3]+0.121*[#   4]+0.121*[#   7]
          +0.121*[#   8]
    |psi|^2 = 0.993
==== e(   2) =   -14.08446 eV ==== 
     psi = 0.181*[#   1]+0.181*[#   5]+0.157*[#   3]+0.157*[#   4]+0.157*[#   7]
          +0.157*[#   8]
    |psi|^2 = 0.989
==== e(   3) =   -11.82040 eV ==== 
     psi = 0.230*[#   3]+0.230*[#   4]+0.230*[#   7]+0.230*[#   8]+0.032*[#   1]
          +0.032*[#   5]
    |psi|^2 = 0.984
==== e(   4) =    -2.54664 eV ==== 
     psi = 0.498*[#   2]+0.498*[#   6]
    |psi|^2 = 0.995
==== e(   5) =    -0.94081 eV ==== 
     psi = 0.494*[#   2]+0.494*[#   6]
    |psi|^2 = 0.988
==== e(   6) =     9.04164 eV ==== 
     psi = 0.001*[#   2]+0.001*[#   6]
    |psi|^2 = 0.002
==== e(   7) =    10.43027 eV ==== 
     psi = 0.032*[#   1]+0.032*[#   5]+0.009*[#   3]+0.009*[#   4]+0.009*[#   7]
          +0.009*[#   8]
    |psi|^2 = 0.099
==== e(   8) =    10.82574 eV ==== 
     psi = 0.156*[#   1]+0.156*[#   5]+0.048*[#   3]+0.048*[#   4]+0.048*[#   7]
          +0.048*[#   8]
    |psi|^2 = 0.504
==== e(   9) =    11.11647 eV ==== 
     psi = 0.052*[#   1]+0.052*[#   5]+0.024*[#   3]+0.024*[#   4]+0.024*[#   7]
          +0.024*[#   8]
    |psi|^2 = 0.197
==== e(  10) =    11.61324 eV ==== 
     psi = 0.004*[#   1]+0.004*[#   5]+0.002*[#   3]+0.002*[#   4]+0.002*[#   7]
          +0.002*[#   8]
    |psi|^2 = 0.018
==== e(  11) =    11.69998 eV ==== 
 
    |psi|^2 = 0.000
==== e(  12) =    12.22277 eV ==== 
     psi = 0.009*[#   1]+0.009*[#   5]+0.004*[#   3]+0.004*[#   4]+0.004*[#   7]
          +0.004*[#   8]
    |psi|^2 = 0.035
==== e(  13) =    12.47503 eV ==== 
 
    |psi|^2 = 0.000
==== e(  14) =    13.75837 eV ==== 
     psi = 0.070*[#   1]+0.070*[#   5]+0.037*[#   3]+0.037*[#   4]+0.037*[#   7]
          +0.037*[#   8]
    |psi|^2 = 0.288
==== e(  15) =    13.88066 eV ==== 
 
    |psi|^2 = 0.000
==== e(  16) =    14.29714 eV ==== 
     psi = 0.029*[#   1]+0.029*[#   5]+0.014*[#   3]+0.014*[#   4]+0.014*[#   7]
          +0.014*[#   8]
    |psi|^2 = 0.111

 k =   0.2916666667  0.5051814855  0.0000000000
==== e(   1) =   -15.57510 eV ==== 
     psi = 0.242*[#   1]+0.242*[#   5]+0.126*[#   3]+0.126*[#   4]+0.126*[#   7]
          +0.126*[#   8]
    |psi|^2 = 0.989
==== e(   2) =   -13.40264 eV ==== 
     psi = 0.201*[#   1]+0.201*[#   5]+0.148*[#   3]+0.148*[#   4]+0.148*[#   7]
          +0.148*[#   8]
    |psi|^2 = 0.994
==== e(   3) =   -11.76314 eV ==== 
     psi = 0.234*[#   3]+0.234*[#   4]+0.234*[#   7]+0.234*[#   8]+0.023*[#   1]
          +0.023*[#   5]
    |psi|^2 = 0.983
==== e(   4) =    -3.03005 eV ==== 
     psi = 0.498*[#   2]+0.498*[#   6]
    |psi|^2 = 0.995
==== e(   5) =    -0.43320 eV ==== 
     psi = 0.494*[#   2]+0.494*[#   6]
    |psi|^2 = 0.988
==== e(   6) =     8.97501 eV ==== 
 
    |psi|^2 = 0.001
==== e(   7) =     9.32509 eV ==== 
     psi = 0.007*[#   1]+0.007*[#   5]+0.001*[#   3]+0.001*[#   4]+0.001*[#   7]
          +0.001*[#   8]
    |psi|^2 = 0.019
==== e(   8) =    10.35732 eV ==== 
     psi = 0.007*[#   1]+0.007*[#   5]+0.002*[#   3]+0.002*[#   4]+0.002*[#   7]
          +0.002*[#   8]
    |psi|^2 = 0.021
==== e(   9) =    10.67930 eV ==== 
 
    |psi|^2 = 0.000
==== e(  10) =    11.25768 eV ==== 
     psi = 0.204*[#   1]+0.204*[#   5]+0.062*[#   3]+0.062*[#   4]+0.062*[#   7]
          +0.062*[#   8]
    |psi|^2 = 0.658
==== e(  11) =    11.48036 eV ==== 
     psi = 0.098*[#   1]+0.098*[#   5]+0.056*[#   3]+0.056*[#   4]+0.056*[#   7]
          +0.056*[#   8]
    |psi|^2 = 0.421
==== e(  12) =    12.76190 eV ==== 
 
    |psi|^2 = 0.000
==== e(  13) =    12.98719 eV ==== 
     psi = 0.003*[#   1]+0.003*[#   5]+0.001*[#   3]+0.001*[#   4]+0.001*[#   7]
          +0.001*[#   8]
    |psi|^2 = 0.011
==== e(  14) =    13.97134 eV ==== 
     psi = 0.022*[#   1]+0.022*[#   5]+0.010*[#   3]+0.010*[#   4]+0.010*[#   7]
          +0.010*[#   8]
    |psi|^2 = 0.085
==== e(  15) =    14.03854 eV ==== 
     psi = 0.013*[#   1]+0.013*[#   5]+0.009*[#   3]+0.009*[#   4]+0.009*[#   7]
          +0.009*[#   8]
    |psi|^2 = 0.060
==== e(  16) =    14.29045 eV ==== 
 
    |psi|^2 = 0.001

 k =   0.2916666667  0.5292377468  0.0000000000
==== e(   1) =   -15.22414 eV ==== 
     psi = 0.241*[#   1]+0.241*[#   5]+0.127*[#   3]+0.127*[#   4]+0.127*[#   7]
          +0.127*[#   8]
    |psi|^2 = 0.990
==== e(   2) =   -13.67516 eV ==== 
     psi = 0.206*[#   1]+0.206*[#   5]+0.145*[#   3]+0.145*[#   4]+0.145*[#   7]
          +0.145*[#   8]
    |psi|^2 = 0.993
==== e(   3) =   -11.94888 eV ==== 
     psi = 0.236*[#   3]+0.236*[#   4]+0.236*[#   7]+0.236*[#   8]+0.019*[#   1]
          +0.019*[#   5]
    |psi|^2 = 0.982
==== e(   4) =    -2.68891 eV ==== 
     psi = 0.497*[#   2]+0.497*[#   6]
    |psi|^2 = 0.995
==== e(   5) =    -0.77529 eV ==== 
     psi = 0.495*[#   2]+0.495*[#   6]
    |psi|^2 = 0.989
==== e(   6) =     8.97754 eV ==== 
 
    |psi|^2 = 0.001
==== e(   7) =     9.87152 eV ==== 
     psi = 0.013*[#   1]+0.013*[#   5]+0.003*[#   3]+0.003*[#   4]+0.003*[#   7]
          +0.003*[#   8]
    |psi|^2 = 0.037
==== e(   8) =    10.92701 eV ==== 
     psi = 0.015*[#   1]+0.015*[#   5]+0.005*[#   3]+0.005*[#   4]+0.005*[#   7]
          +0.005*[#   8]
    |psi|^2 = 0.049
==== e(   9) =    11.16142 eV ==== 
 
    |psi|^2 = 0.000
==== e(  10) =    11.23551 eV ==== 
     psi = 0.180*[#   1]+0.180*[#   5]+0.056*[#   3]+0.056*[#   4]+0.056*[#   7]
          +0.056*[#   8]
    |psi|^2 = 0.585
==== e(  11) =    11.61317 eV ==== 
     psi = 0.069*[#   1]+0.069*[#   5]+0.037*[#   3]+0.037*[#   4]+0.037*[#   7]
          +0.037*[#   8]
    |psi|^2 = 0.285
==== e(  12) =    13.19623 eV ==== 
 
    |psi|^2 = 0.000
==== e(  13) =    13.31882 eV ==== 
     psi = 0.028*[#   1]+0.028*[#   5]+0.013*[#   3]+0.013*[#   4]+0.013*[#   7]
          +0.013*[#   8]
    |psi|^2 = 0.107
==== e(  14) =    13.50311 eV ==== 
     psi = 0.006*[#   1]+0.006*[#   5]+0.002*[#   3]+0.002*[#   4]+0.002*[#   7]
          +0.002*[#   8]
    |psi|^2 = 0.022
==== e(  15) =    13.77955 eV ==== 
 
    |psi|^2 = 0.000
==== e(  16) =    13.94363 eV ==== 
     psi = 0.017*[#   1]+0.017*[#   5]+0.008*[#   3]+0.008*[#   4]+0.008*[#   7]
          +0.008*[#   8]
    |psi|^2 = 0.067

 k =   0.2916666667  0.5532940080  0.0000000000
==== e(   1) =   -14.90151 eV ==== 
     psi = 0.243*[#   1]+0.243*[#   5]+0.126*[#   3]+0.126*[#   4]+0.126*[#   7]
          +0.126*[#   8]
    |psi|^2 = 0.992
==== e(   2) =   -13.95384 eV ==== 
     psi = 0.206*[#   1]+0.206*[#   5]+0.145*[#   3]+0.145*[#   4]+0.145*[#   7]
          +0.145*[#   8]
    |psi|^2 = 0.992
==== e(   3) =   -12.05770 eV ==== 
     psi = 0.236*[#   3]+0.236*[#   4]+0.236*[#   7]+0.236*[#   8]+0.018*[#   1]
          +0.018*[#   5]
    |psi|^2 = 0.982
==== e(   4) =    -2.40103 eV ==== 
     psi = 0.497*[#   2]+0.497*[#   6]
    |psi|^2 = 0.995
==== e(   5) =    -1.06342 eV ==== 
     psi = 0.495*[#   2]+0.495*[#   6]
    |psi|^2 = 0.990
==== e(   6) =     8.95905 eV ==== 
 
    |psi|^2 = 0.001
==== e(   7) =    10.40133 eV ==== 
     psi = 0.026*[#   1]+0.026*[#   5]+0.007*[#   3]+0.007*[#   4]+0.007*[#   7]
          +0.007*[#   8]
    |psi|^2 = 0.078
==== e(   8) =    11.14542 eV ==== 
     psi = 0.152*[#   1]+0.152*[#   5]+0.047*[#   3]+0.047*[#   4]+0.047*[#   7]
          +0.047*[#   8]
    |psi|^2 = 0.492
==== e(   9) =    11.40610 eV ==== 
     psi = 0.049*[#   1]+0.049*[#   5]+0.021*[#   3]+0.021*[#   4]+0.021*[#   7]
          +0.021*[#   8]
    |psi|^2 = 0.182
==== e(  10) =    11.65657 eV ==== 
     psi = 0.011*[#   1]+0.011*[#   5]+0.008*[#   3]+0.008*[#   4]+0.008*[#   7]
          +0.008*[#   8]
    |psi|^2 = 0.053
==== e(  11) =    11.70487 eV ==== 
 
    |psi|^2 = 0.000
==== e(  12) =    12.76347 eV ==== 
     psi = 0.017*[#   1]+0.017*[#   5]+0.008*[#   3]+0.008*[#   4]+0.008*[#   7]
          +0.008*[#   8]
    |psi|^2 = 0.066
==== e(  13) =    12.99790 eV ==== 
 
    |psi|^2 = 0.000
==== e(  14) =    13.77195 eV ==== 
     psi = 0.049*[#   1]+0.049*[#   5]+0.024*[#   3]+0.024*[#   4]+0.024*[#   7]
          +0.024*[#   8]
    |psi|^2 = 0.192
==== e(  15) =    13.84280 eV ==== 
 
    |psi|^2 = 0.000
==== e(  16) =    13.89911 eV ==== 
     psi = 0.029*[#   1]+0.029*[#   5]+0.014*[#   3]+0.014*[#   4]+0.014*[#   7]
          +0.014*[#   8]
    |psi|^2 = 0.112

 k =   0.2916666667  0.5773502692  0.0000000000
==== e(   1) =   -14.72800 eV ==== 
     psi = 0.250*[#   1]+0.250*[#   5]+0.123*[#   3]+0.123*[#   4]+0.123*[#   7]
          +0.123*[#   8]
    |psi|^2 = 0.993
==== e(   2) =   -14.11350 eV ==== 
     psi = 0.200*[#   1]+0.200*[#   5]+0.148*[#   3]+0.148*[#   4]+0.148*[#   7]
          +0.148*[#   8]
    |psi|^2 = 0.991
==== e(   3) =   -12.09324 eV ==== 
     psi = 0.237*[#   3]+0.237*[#   4]+0.237*[#   7]+0.237*[#   8]+0.018*[#   1]
          +0.018*[#   5]
    |psi|^2 = 0.982
==== e(   4) =    -2.27096 eV ==== 
     psi = 0.497*[#   2]+0.497*[#   6]
    |psi|^2 = 0.995
==== e(   5) =    -1.19351 eV ==== 
     psi = 0.495*[#   2]+0.495*[#   6]
    |psi|^2 = 0.990
==== e(   6) =     8.95007 eV ==== 
 
    |psi|^2 = 0.001
==== e(   7) =    10.79989 eV ==== 
     psi = 0.048*[#   1]+0.048*[#   5]+0.015*[#   3]+0.015*[#   4]+0.015*[#   7]
          +0.015*[#   8]
    |psi|^2 = 0.153
==== e(   8) =    10.94266 eV ==== 
     psi = 0.090*[#   1]+0.090*[#   5]+0.026*[#   3]+0.026*[#   4]+0.026*[#   7]
          +0.026*[#   8]
    |psi|^2 = 0.284
==== e(   9) =    11.39986 eV ==== 
     psi = 0.082*[#   1]+0.082*[#   5]+0.034*[#   3]+0.034*[#   4]+0.034*[#   7]
          +0.034*[#   8]
    |psi|^2 = 0.299
==== e(  10) =    12.11495 eV ==== 
     psi = 0.016*[#   1]+0.016*[#   5]+0.006*[#   3]+0.006*[#   4]+0.006*[#   7]
          +0.006*[#   8]
    |psi|^2 = 0.059
==== e(  11) =    12.13057 eV ==== 
 
    |psi|^2 = 0.000
==== e(  12) =    12.23047 eV ==== 
 
    |psi|^2 = 0.003
==== e(  13) =    12.56320 eV ==== 
 
    |psi|^2 = 0.000
==== e(  14) =    13.85958 eV ==== 
     psi = 0.025*[#   1]+0.025*[#   5]+0.011*[#   3]+0.011*[#   4]+0.011*[#   7]
          +0.011*[#   8]
    |psi|^2 = 0.093
==== e(  15) =    13.86709 eV ==== 
     psi = 0.095*[#   1]+0.095*[#   5]+0.048*[#   3]+0.048*[#   4]+0.048*[#   7]
          +0.048*[#   8]
    |psi|^2 = 0.384
==== e(  16) =    14.19861 eV ==== 
 
    |psi|^2 = 0.000

 k =   0.3125000000  0.5412658774  0.0000000000
==== e(   1) =   -14.88842 eV ==== 
     psi = 0.240*[#   1]+0.240*[#   5]+0.128*[#   3]+0.128*[#   4]+0.128*[#   7]
          +0.128*[#   8]
    |psi|^2 = 0.992
==== e(   2) =   -13.89450 eV ==== 
     psi = 0.217*[#   1]+0.217*[#   5]+0.140*[#   3]+0.140*[#   4]+0.140*[#   7]
          +0.140*[#   8]
    |psi|^2 = 0.993
==== e(   3) =   -12.14895 eV ==== 
     psi = 0.240*[#   3]+0.240*[#   4]+0.240*[#   7]+0.240*[#   8]+0.010*[#   1]
          +0.010*[#   5]
    |psi|^2 = 0.981
==== e(   4) =    -2.34600 eV ==== 
     psi = 0.497*[#   2]+0.497*[#   6]
    |psi|^2 = 0.994
==== e(   5) =    -1.11051 eV ==== 
     psi = 0.495*[#   2]+0.495*[#   6]
    |psi|^2 = 0.991
==== e(   6) =     8.93044 eV ==== 
 
    |psi|^2 = 0.000
==== e(   7) =    10.39018 eV ==== 
     psi = 0.024*[#   1]+0.024*[#   5]+0.006*[#   3]+0.006*[#   4]+0.006*[#   7]
          +0.006*[#   8]
    |psi|^2 = 0.075
==== e(   8) =    11.26623 eV ==== 
     psi = 0.149*[#   1]+0.149*[#   5]+0.046*[#   3]+0.046*[#   4]+0.046*[#   7]
          +0.046*[#   8]
    |psi|^2 = 0.484
==== e(   9) =    11.45361 eV ==== 
     psi = 0.038*[#   1]+0.038*[#   5]+0.015*[#   3]+0.015*[#   4]+0.015*[#   7]
          +0.015*[#   8]
    |psi|^2 = 0.135
==== e(  10) =    11.70096 eV ==== 
 
    |psi|^2 = 0.000
==== e(  11) =    11.74790 eV ==== 
     psi = 0.025*[#   1]+0.025*[#   5]+0.015*[#   3]+0.015*[#   4]+0.015*[#   7]
          +0.015*[#   8]
    |psi|^2 = 0.112
==== e(  12) =    13.27601 eV ==== 
     psi = 0.026*[#   1]+0.026*[#   5]+0.011*[#   3]+0.011*[#   4]+0.011*[#   7]
          +0.011*[#   8]
    |psi|^2 = 0.096
==== e(  13) =    13.32454 eV ==== 
     psi = 0.024*[#   1]+0.024*[#   5]+0.012*[#   3]+0.012*[#   4]+0.012*[#   7]
          +0.012*[#   8]
    |psi|^2 = 0.096
==== e(  14) =    13.48725 eV ==== 
 
    |psi|^2 = 0.000
==== e(  15) =    13.56062 eV ==== 
 
    |psi|^2 = 0.000
==== e(  16) =    13.85240 eV ==== 
     psi = 0.028*[#   1]+0.028*[#   5]+0.013*[#   3]+0.013*[#   4]+0.013*[#   7]
          +0.013*[#   8]
    |psi|^2 = 0.109

 k =   0.3125000000  0.5653221386  0.0000000000
==== e(   1) =   -14.60059 eV ==== 
     psi = 0.241*[#   1]+0.241*[#   5]+0.128*[#   3]+0.128*[#   4]+0.128*[#   7]
          +0.128*[#   8]
    |psi|^2 = 0.993
==== e(   2) =   -14.12154 eV ==== 
     psi = 0.222*[#   1]+0.222*[#   5]+0.137*[#   3]+0.137*[#   4]+0.137*[#   7]
          +0.137*[#   8]
    |psi|^2 = 0.993
==== e(   3) =   -12.25189 eV ==== 
     psi = 0.242*[#   3]+0.242*[#   4]+0.242*[#   7]+0.242*[#   8]+0.005*[#   1]
          +0.005*[#   5]
    |psi|^2 = 0.980
==== e(   4) =    -2.06121 eV ==== 
     psi = 0.497*[#   2]+0.497*[#   6]
    |psi|^2 = 0.994
==== e(   5) =    -1.39116 eV ==== 
     psi = 0.496*[#   2]+0.496*[#   6]
    |psi|^2 = 0.992
==== e(   6) =     8.90000 eV ==== 
 
    |psi|^2 = 0.000
==== e(   7) =    10.84060 eV ==== 
     psi = 0.051*[#   1]+0.051*[#   5]+0.015*[#   3]+0.015*[#   4]+0.015*[#   7]
          +0.015*[#   8]
    |psi|^2 = 0.164
==== e(   8) =    11.16917 eV ==== 
     psi = 0.111*[#   1]+0.111*[#   5]+0.035*[#   3]+0.035*[#   4]+0.035*[#   7]
          +0.035*[#   8]
    |psi|^2 = 0.360
==== e(   9) =    11.60177 eV ==== 
     psi = 0.040*[#   1]+0.040*[#   5]+0.018*[#   3]+0.018*[#   4]+0.018*[#   7]
          +0.018*[#   8]
    |psi|^2 = 0.151
==== e(  10) =    12.15348 eV ==== 
     psi = 0.006*[#   1]+0.006*[#   5]+0.003*[#   3]+0.003*[#   4]+0.003*[#   7]
          +0.003*[#   8]
    |psi|^2 = 0.022
==== e(  11) =    12.26195 eV ==== 
 
    |psi|^2 = 0.000
==== e(  12) =    12.72825 eV ==== 
     psi = 0.015*[#   1]+0.015*[#   5]+0.007*[#   3]+0.007*[#   4]+0.007*[#   7]
          +0.007*[#   8]
    |psi|^2 = 0.058
==== e(  13) =    12.96499 eV ==== 
 
    |psi|^2 = 0.000
==== e(  14) =    13.28088 eV ==== 
     psi = 0.023*[#   1]+0.023*[#   5]+0.010*[#   3]+0.010*[#   4]+0.010*[#   7]
          +0.010*[#   8]
    |psi|^2 = 0.088
==== e(  15) =    13.66389 eV ==== 
 
    |psi|^2 = 0.000
==== e(  16) =    13.94517 eV ==== 
     psi = 0.087*[#   1]+0.087*[#   5]+0.043*[#   3]+0.043*[#   4]+0.043*[#   7]
          +0.043*[#   8]
    |psi|^2 = 0.346

 k =   0.3333333333  0.5773502692  0.0000000000
==== e(   1) =   -14.33660 eV ==== 
     psi = 0.234*[#   1]+0.234*[#   5]+0.131*[#   3]+0.131*[#   4]+0.131*[#   7]
          +0.131*[#   8]
    |psi|^2 = 0.993
==== e(   2) =   -14.33660 eV ==== 
     psi = 0.234*[#   1]+0.234*[#   5]+0.131*[#   3]+0.131*[#   4]+0.131*[#   7]
          +0.131*[#   8]
    |psi|^2 = 0.993
==== e(   3) =   -12.32126 eV ==== 
     psi = 0.245*[#   3]+0.245*[#   4]+0.245*[#   7]+0.245*[#   8]
    |psi|^2 = 0.979
==== e(   4) =    -1.72410 eV ==== 
     psi = 0.497*[#   2]+0.497*[#   6]
    |psi|^2 = 0.993
==== e(   5) =    -1.72410 eV ==== 
     psi = 0.497*[#   2]+0.497*[#   6]
    |psi|^2 = 0.993
==== e(   6) =     8.87863 eV ==== 
 
    |psi|^2 = 0.000
==== e(   7) =    11.10395 eV ==== 
     psi = 0.090*[#   1]+0.090*[#   5]+0.028*[#   3]+0.028*[#   4]+0.028*[#   7]
          +0.028*[#   8]
    |psi|^2 = 0.292
==== e(   8) =    11.10395 eV ==== 
     psi = 0.090*[#   1]+0.090*[#   5]+0.028*[#   3]+0.028*[#   4]+0.028*[#   7]
          +0.028*[#   8]
    |psi|^2 = 0.292
==== e(   9) =    11.63157 eV ==== 
     psi = 0.003*[#   3]+0.003*[#   4]+0.003*[#   7]+0.003*[#   8]
    |psi|^2 = 0.011
==== e(  10) =    12.66369 eV ==== 
     psi = 0.023*[#   1]+0.023*[#   5]+0.009*[#   3]+0.009*[#   4]+0.009*[#   7]
          +0.009*[#   8]
    |psi|^2 = 0.084
==== e(  11) =    12.66369 eV ==== 
     psi = 0.023*[#   1]+0.023*[#   5]+0.009*[#   3]+0.009*[#   4]+0.009*[#   7]
          +0.009*[#   8]
    |psi|^2 = 0.084
==== e(  12) =    12.76705 eV ==== 
 
    |psi|^2 = 0.000
==== e(  13) =    12.76705 eV ==== 
 
    |psi|^2 = 0.000
==== e(  14) =    12.81535 eV ==== 
 
    |psi|^2 = 0.002
==== e(  15) =    13.35243 eV ==== 
 
    |psi|^2 = 0.000
==== e(  16) =    14.04663 eV ==== 
     psi = 0.092*[#   1]+0.092*[#   5]+0.045*[#   3]+0.045*[#   4]+0.045*[#   7]
          +0.045*[#   8]
    |psi|^2 = 0.363

Lowdin Charges: 

     Atom #   1: total charge =   3.9540, s =  0.9004, 
     Atom #   1: total charge =   3.9540, p =  3.0536, pz=  0.9867, px=  1.0335, py=  1.0335, 
     Atom #   2: total charge =   3.9540, s =  0.9004, 
     Atom #   2: total charge =   3.9540, p =  3.0536, pz=  0.9867, px=  1.0335, py=  1.0335, 
     Spilling Parameter:   0.0115
 
     PROJWFC      :      2.25s CPU      2.58s WALL

 
   This run was terminated on:   5:53:33   1Feb2022            

=------------------------------------------------------------------------------=
   JOB DONE.
=------------------------------------------------------------------------------=
