File written on  4Feb2022 at 20:08:14 

calc_only_A  :  F

begin real_lattice
   2.4639060   0.0000000   0.0000000
  -1.2319530   2.1338050   0.0000000
   0.0000000   0.0000000  15.0000000
end real_lattice

begin recip_lattice
   2.5500913   1.4722960   0.0000000
   0.0000000   2.9445921   0.0000000
   0.0000000   0.0000000   0.4188790
end recip_lattice

begin kpoints
   144
    0.00000000    0.00000000    0.00000000
    0.00000000    0.08333333    0.00000000
    0.00000000    0.16666667    0.00000000
    0.00000000    0.25000000    0.00000000
    0.00000000    0.33333333    0.00000000
    0.00000000    0.41666667    0.00000000
    0.00000000   -0.50000000    0.00000000
    0.00000000   -0.41666667    0.00000000
    0.00000000   -0.33333333    0.00000000
    0.00000000   -0.25000000    0.00000000
    0.00000000   -0.16666667    0.00000000
    0.00000000   -0.08333333    0.00000000
    0.08333333    0.00000000    0.00000000
    0.08333333    0.08333333    0.00000000
    0.08333333    0.16666667    0.00000000
    0.08333333    0.25000000    0.00000000
    0.08333333    0.33333333    0.00000000
    0.08333333    0.41666667    0.00000000
    0.08333333   -0.50000000    0.00000000
    0.08333333   -0.41666667    0.00000000
    0.08333333   -0.33333333    0.00000000
    0.08333333   -0.25000000    0.00000000
    0.08333333   -0.16666667    0.00000000
    0.08333333   -0.08333333    0.00000000
    0.16666667    0.00000000    0.00000000
    0.16666667    0.08333333    0.00000000
    0.16666667    0.16666667    0.00000000
    0.16666667    0.25000000    0.00000000
    0.16666667    0.33333333    0.00000000
    0.16666667    0.41666667    0.00000000
    0.16666667   -0.50000000    0.00000000
    0.16666667   -0.41666667    0.00000000
    0.16666667   -0.33333333    0.00000000
    0.16666667   -0.25000000    0.00000000
    0.16666667   -0.16666667    0.00000000
    0.16666667   -0.08333333    0.00000000
    0.25000000    0.00000000    0.00000000
    0.25000000    0.08333333    0.00000000
    0.25000000    0.16666667    0.00000000
    0.25000000    0.25000000    0.00000000
    0.25000000    0.33333333    0.00000000
    0.25000000   -0.58333333    0.00000000
    0.25000000   -0.50000000    0.00000000
    0.25000000   -0.41666667    0.00000000
    0.25000000   -0.33333333    0.00000000
    0.25000000   -0.25000000    0.00000000
    0.25000000   -0.16666667    0.00000000
    0.25000000   -0.08333333    0.00000000
    0.33333333    0.00000000    0.00000000
    0.33333333    0.08333333    0.00000000
    0.33333333    0.16666667    0.00000000
    0.33333333    0.25000000    0.00000000
    0.33333333    0.33333333    0.00000000
    0.33333333   -0.58333333    0.00000000
    0.33333333   -0.50000000    0.00000000
    0.33333333   -0.41666667    0.00000000
    0.33333333   -0.33333333    0.00000000
    0.33333333   -0.25000000    0.00000000
    0.33333333   -0.16666667    0.00000000
    0.33333333   -0.08333333    0.00000000
    0.41666667    0.00000000    0.00000000
    0.41666667    0.08333333    0.00000000
   -0.58333333    0.16666667    0.00000000
   -0.58333333    0.25000000    0.00000000
   -0.58333333    0.33333333    0.00000000
    0.41666667   -0.58333333    0.00000000
    0.41666667   -0.50000000    0.00000000
    0.41666667   -0.41666667    0.00000000
    0.41666667   -0.33333333    0.00000000
    0.41666667   -0.25000000    0.00000000
    0.41666667   -0.16666667    0.00000000
    0.41666667   -0.08333333    0.00000000
   -0.50000000    0.00000000    0.00000000
   -0.50000000    0.08333333    0.00000000
   -0.50000000    0.16666667    0.00000000
   -0.50000000    0.25000000    0.00000000
   -0.50000000    0.33333333    0.00000000
   -0.50000000    0.41666667    0.00000000
    0.50000000   -0.50000000    0.00000000
    0.50000000   -0.41666667    0.00000000
    0.50000000   -0.33333333    0.00000000
    0.50000000   -0.25000000    0.00000000
    0.50000000   -0.16666667    0.00000000
    0.50000000   -0.08333333    0.00000000
   -0.41666667    0.00000000    0.00000000
   -0.41666667    0.08333333    0.00000000
   -0.41666667    0.16666667    0.00000000
   -0.41666667    0.25000000    0.00000000
   -0.41666667    0.33333333    0.00000000
   -0.41666667    0.41666667    0.00000000
   -0.41666667    0.50000000    0.00000000
   -0.41666667    0.58333333    0.00000000
    0.58333333   -0.33333333    0.00000000
    0.58333333   -0.25000000    0.00000000
    0.58333333   -0.16666667    0.00000000
   -0.41666667   -0.08333333    0.00000000
   -0.33333333    0.00000000    0.00000000
   -0.33333333    0.08333333    0.00000000
   -0.33333333    0.16666667    0.00000000
   -0.33333333    0.25000000    0.00000000
   -0.33333333    0.33333333    0.00000000
   -0.33333333    0.41666667    0.00000000
   -0.33333333    0.50000000    0.00000000
   -0.33333333    0.58333333    0.00000000
   -0.33333333   -0.33333333    0.00000000
   -0.33333333   -0.25000000    0.00000000
   -0.33333333   -0.16666667    0.00000000
   -0.33333333   -0.08333333    0.00000000
   -0.25000000    0.00000000    0.00000000
   -0.25000000    0.08333333    0.00000000
   -0.25000000    0.16666667    0.00000000
   -0.25000000    0.25000000    0.00000000
   -0.25000000    0.33333333    0.00000000
   -0.25000000    0.41666667    0.00000000
   -0.25000000    0.50000000    0.00000000
   -0.25000000    0.58333333    0.00000000
   -0.25000000   -0.33333333    0.00000000
   -0.25000000   -0.25000000    0.00000000
   -0.25000000   -0.16666667    0.00000000
   -0.25000000   -0.08333333    0.00000000
   -0.16666667    0.00000000    0.00000000
   -0.16666667    0.08333333    0.00000000
   -0.16666667    0.16666667    0.00000000
   -0.16666667    0.25000000    0.00000000
   -0.16666667    0.33333333    0.00000000
   -0.16666667    0.41666667    0.00000000
   -0.16666667    0.50000000    0.00000000
   -0.16666667   -0.41666667    0.00000000
   -0.16666667   -0.33333333    0.00000000
   -0.16666667   -0.25000000    0.00000000
   -0.16666667   -0.16666667    0.00000000
   -0.16666667   -0.08333333    0.00000000
   -0.08333333    0.00000000    0.00000000
   -0.08333333    0.08333333    0.00000000
   -0.08333333    0.16666667    0.00000000
   -0.08333333    0.25000000    0.00000000
   -0.08333333    0.33333333    0.00000000
   -0.08333333    0.41666667    0.00000000
   -0.08333333    0.50000000    0.00000000
   -0.08333333   -0.41666667    0.00000000
   -0.08333333   -0.33333333    0.00000000
   -0.08333333   -0.25000000    0.00000000
   -0.08333333   -0.16666667    0.00000000
   -0.08333333   -0.08333333    0.00000000
end kpoints

begin projections
     5
   0.33333    0.66667    0.50000     1  1  1
    0.0000000  0.0000000  1.0000000   1.0000000  0.0000000  0.0000000    1.00
   0.66667    0.33333    0.50000     1  1  1
    0.0000000  0.0000000  1.0000000   1.0000000  0.0000000  0.0000000    1.00
   0.50000    0.50000    0.50000     0  1  1
    0.0000000  0.0000000  1.0000000   1.0000000  0.0000000  0.0000000    1.00
   0.50000    0.00000    0.50000     0  1  1
    0.0000000  0.0000000  1.0000000   1.0000000  0.0000000  0.0000000    1.00
   0.00000    0.50000    0.50000     0  1  1
    0.0000000  0.0000000  1.0000000   1.0000000  0.0000000  0.0000000    1.00
end projections

begin nnkpts
   8
     1     2      0   0   0
     1    12      0   0   0
     1    13      0   0   0
     1    24      0   0   0
     1   133      0   0   0
     1   134      0   0   0
     1     1      0   0   1
     1     1      0   0  -1
     2     1      0   0   0
     2     3      0   0   0
     2    13      0   0   0
     2    14      0   0   0
     2   134      0   0   0
     2   135      0   0   0
     2     2      0   0   1
     2     2      0   0  -1
     3     2      0   0   0
     3     4      0   0   0
     3    14      0   0   0
     3    15      0   0   0
     3   135      0   0   0
     3   136      0   0   0
     3     3      0   0   1
     3     3      0   0  -1
     4     3      0   0   0
     4     5      0   0   0
     4    15      0   0   0
     4    16      0   0   0
     4   136      0   0   0
     4   137      0   0   0
     4     4      0   0   1
     4     4      0   0  -1
     5     4      0   0   0
     5     6      0   0   0
     5    16      0   0   0
     5    17      0   0   0
     5   137      0   0   0
     5   138      0   0   0
     5     5      0   0   1
     5     5      0   0  -1
     6     5      0   0   0
     6    17      0   0   0
     6    18      0   0   0
     6   138      0   0   0
     6   139      0   0   0
     6     7      0   1   0
     6     6      0   0   1
     6     6      0   0  -1
     7     8      0   0   0
     7    19      0   0   0
     7   140      0   0   0
     7     6      0  -1   0
     7    18      0  -1   0
     7   139      0  -1   0
     7     7      0   0   1
     7     7      0   0  -1
     8     7      0   0   0
     8     9      0   0   0
     8    19      0   0   0
     8    20      0   0   0
     8   140      0   0   0
     8   141      0   0   0
     8     8      0   0   1
     8     8      0   0  -1
     9     8      0   0   0
     9    10      0   0   0
     9    20      0   0   0
     9    21      0   0   0
     9   141      0   0   0
     9   142      0   0   0
     9     9      0   0   1
     9     9      0   0  -1
    10     9      0   0   0
    10    11      0   0   0
    10    21      0   0   0
    10    22      0   0   0
    10   142      0   0   0
    10   143      0   0   0
    10    10      0   0   1
    10    10      0   0  -1
    11    10      0   0   0
    11    12      0   0   0
    11    22      0   0   0
    11    23      0   0   0
    11   143      0   0   0
    11   144      0   0   0
    11    11      0   0   1
    11    11      0   0  -1
    12     1      0   0   0
    12    11      0   0   0
    12    23      0   0   0
    12    24      0   0   0
    12   133      0   0   0
    12   144      0   0   0
    12    12      0   0   1
    12    12      0   0  -1
    13     1      0   0   0
    13     2      0   0   0
    13    14      0   0   0
    13    24      0   0   0
    13    25      0   0   0
    13    36      0   0   0
    13    13      0   0   1
    13    13      0   0  -1
    14     2      0   0   0
    14     3      0   0   0
    14    13      0   0   0
    14    15      0   0   0
    14    25      0   0   0
    14    26      0   0   0
    14    14      0   0   1
    14    14      0   0  -1
    15     3      0   0   0
    15     4      0   0   0
    15    14      0   0   0
    15    16      0   0   0
    15    26      0   0   0
    15    27      0   0   0
    15    15      0   0   1
    15    15      0   0  -1
    16     4      0   0   0
    16     5      0   0   0
    16    15      0   0   0
    16    17      0   0   0
    16    27      0   0   0
    16    28      0   0   0
    16    16      0   0   1
    16    16      0   0  -1
    17     5      0   0   0
    17     6      0   0   0
    17    16      0   0   0
    17    18      0   0   0
    17    28      0   0   0
    17    29      0   0   0
    17    17      0   0   1
    17    17      0   0  -1
    18     6      0   0   0
    18    17      0   0   0
    18    29      0   0   0
    18    30      0   0   0
    18     7      0   1   0
    18    19      0   1   0
    18    18      0   0   1
    18    18      0   0  -1
    19     7      0   0   0
    19     8      0   0   0
    19    20      0   0   0
    19    31      0   0   0
    19    18      0  -1   0
    19    30      0  -1   0
    19    19      0   0   1
    19    19      0   0  -1
    20     8      0   0   0
    20     9      0   0   0
    20    19      0   0   0
    20    21      0   0   0
    20    31      0   0   0
    20    32      0   0   0
    20    20      0   0   1
    20    20      0   0  -1
    21     9      0   0   0
    21    10      0   0   0
    21    20      0   0   0
    21    22      0   0   0
    21    32      0   0   0
    21    33      0   0   0
    21    21      0   0   1
    21    21      0   0  -1
    22    10      0   0   0
    22    11      0   0   0
    22    21      0   0   0
    22    23      0   0   0
    22    33      0   0   0
    22    34      0   0   0
    22    22      0   0   1
    22    22      0   0  -1
    23    11      0   0   0
    23    12      0   0   0
    23    22      0   0   0
    23    24      0   0   0
    23    34      0   0   0
    23    35      0   0   0
    23    23      0   0   1
    23    23      0   0  -1
    24     1      0   0   0
    24    12      0   0   0
    24    13      0   0   0
    24    23      0   0   0
    24    35      0   0   0
    24    36      0   0   0
    24    24      0   0   1
    24    24      0   0  -1
    25    13      0   0   0
    25    14      0   0   0
    25    26      0   0   0
    25    36      0   0   0
    25    37      0   0   0
    25    48      0   0   0
    25    25      0   0   1
    25    25      0   0  -1
    26    14      0   0   0
    26    15      0   0   0
    26    25      0   0   0
    26    27      0   0   0
    26    37      0   0   0
    26    38      0   0   0
    26    26      0   0   1
    26    26      0   0  -1
    27    15      0   0   0
    27    16      0   0   0
    27    26      0   0   0
    27    28      0   0   0
    27    38      0   0   0
    27    39      0   0   0
    27    27      0   0   1
    27    27      0   0  -1
    28    16      0   0   0
    28    17      0   0   0
    28    27      0   0   0
    28    29      0   0   0
    28    39      0   0   0
    28    40      0   0   0
    28    28      0   0   1
    28    28      0   0  -1
    29    17      0   0   0
    29    18      0   0   0
    29    28      0   0   0
    29    30      0   0   0
    29    40      0   0   0
    29    41      0   0   0
    29    29      0   0   1
    29    29      0   0  -1
    30    18      0   0   0
    30    29      0   0   0
    30    41      0   0   0
    30    19      0   1   0
    30    31      0   1   0
    30    42      0   1   0
    30    30      0   0   1
    30    30      0   0  -1
    31    19      0   0   0
    31    20      0   0   0
    31    32      0   0   0
    31    42      0   0   0
    31    43      0   0   0
    31    30      0  -1   0
    31    31      0   0   1
    31    31      0   0  -1
    32    20      0   0   0
    32    21      0   0   0
    32    31      0   0   0
    32    33      0   0   0
    32    43      0   0   0
    32    44      0   0   0
    32    32      0   0   1
    32    32      0   0  -1
    33    21      0   0   0
    33    22      0   0   0
    33    32      0   0   0
    33    34      0   0   0
    33    44      0   0   0
    33    45      0   0   0
    33    33      0   0   1
    33    33      0   0  -1
    34    22      0   0   0
    34    23      0   0   0
    34    33      0   0   0
    34    35      0   0   0
    34    45      0   0   0
    34    46      0   0   0
    34    34      0   0   1
    34    34      0   0  -1
    35    23      0   0   0
    35    24      0   0   0
    35    34      0   0   0
    35    36      0   0   0
    35    46      0   0   0
    35    47      0   0   0
    35    35      0   0   1
    35    35      0   0  -1
    36    13      0   0   0
    36    24      0   0   0
    36    25      0   0   0
    36    35      0   0   0
    36    47      0   0   0
    36    48      0   0   0
    36    36      0   0   1
    36    36      0   0  -1
    37    25      0   0   0
    37    26      0   0   0
    37    38      0   0   0
    37    48      0   0   0
    37    49      0   0   0
    37    60      0   0   0
    37    37      0   0   1
    37    37      0   0  -1
    38    26      0   0   0
    38    27      0   0   0
    38    37      0   0   0
    38    39      0   0   0
    38    49      0   0   0
    38    50      0   0   0
    38    38      0   0   1
    38    38      0   0  -1
    39    27      0   0   0
    39    28      0   0   0
    39    38      0   0   0
    39    40      0   0   0
    39    50      0   0   0
    39    51      0   0   0
    39    39      0   0   1
    39    39      0   0  -1
    40    28      0   0   0
    40    29      0   0   0
    40    39      0   0   0
    40    41      0   0   0
    40    51      0   0   0
    40    52      0   0   0
    40    40      0   0   1
    40    40      0   0  -1
    41    29      0   0   0
    41    30      0   0   0
    41    40      0   0   0
    41    52      0   0   0
    41    53      0   0   0
    41    42      0   1   0
    41    41      0   0   1
    41    41      0   0  -1
    42    31      0   0   0
    42    43      0   0   0
    42    54      0   0   0
    42    30      0  -1   0
    42    41      0  -1   0
    42    53      0  -1   0
    42    42      0   0   1
    42    42      0   0  -1
    43    31      0   0   0
    43    32      0   0   0
    43    42      0   0   0
    43    44      0   0   0
    43    54      0   0   0
    43    55      0   0   0
    43    43      0   0   1
    43    43      0   0  -1
    44    32      0   0   0
    44    33      0   0   0
    44    43      0   0   0
    44    45      0   0   0
    44    55      0   0   0
    44    56      0   0   0
    44    44      0   0   1
    44    44      0   0  -1
    45    33      0   0   0
    45    34      0   0   0
    45    44      0   0   0
    45    46      0   0   0
    45    56      0   0   0
    45    57      0   0   0
    45    45      0   0   1
    45    45      0   0  -1
    46    34      0   0   0
    46    35      0   0   0
    46    45      0   0   0
    46    47      0   0   0
    46    57      0   0   0
    46    58      0   0   0
    46    46      0   0   1
    46    46      0   0  -1
    47    35      0   0   0
    47    36      0   0   0
    47    46      0   0   0
    47    48      0   0   0
    47    58      0   0   0
    47    59      0   0   0
    47    47      0   0   1
    47    47      0   0  -1
    48    25      0   0   0
    48    36      0   0   0
    48    37      0   0   0
    48    47      0   0   0
    48    59      0   0   0
    48    60      0   0   0
    48    48      0   0   1
    48    48      0   0  -1
    49    37      0   0   0
    49    38      0   0   0
    49    50      0   0   0
    49    60      0   0   0
    49    61      0   0   0
    49    72      0   0   0
    49    49      0   0   1
    49    49      0   0  -1
    50    38      0   0   0
    50    39      0   0   0
    50    49      0   0   0
    50    51      0   0   0
    50    61      0   0   0
    50    62      0   0   0
    50    50      0   0   1
    50    50      0   0  -1
    51    39      0   0   0
    51    40      0   0   0
    51    50      0   0   0
    51    52      0   0   0
    51    62      0   0   0
    51    63      1   0   0
    51    51      0   0   1
    51    51      0   0  -1
    52    40      0   0   0
    52    41      0   0   0
    52    51      0   0   0
    52    53      0   0   0
    52    63      1   0   0
    52    64      1   0   0
    52    52      0   0   1
    52    52      0   0  -1
    53    41      0   0   0
    53    52      0   0   0
    53    64      1   0   0
    53    65      1   0   0
    53    42      0   1   0
    53    54      0   1   0
    53    53      0   0   1
    53    53      0   0  -1
    54    42      0   0   0
    54    43      0   0   0
    54    55      0   0   0
    54    66      0   0   0
    54    65      1  -1   0
    54    53      0  -1   0
    54    54      0   0   1
    54    54      0   0  -1
    55    43      0   0   0
    55    44      0   0   0
    55    54      0   0   0
    55    56      0   0   0
    55    66      0   0   0
    55    67      0   0   0
    55    55      0   0   1
    55    55      0   0  -1
    56    44      0   0   0
    56    45      0   0   0
    56    55      0   0   0
    56    57      0   0   0
    56    67      0   0   0
    56    68      0   0   0
    56    56      0   0   1
    56    56      0   0  -1
    57    45      0   0   0
    57    46      0   0   0
    57    56      0   0   0
    57    58      0   0   0
    57    68      0   0   0
    57    69      0   0   0
    57    57      0   0   1
    57    57      0   0  -1
    58    46      0   0   0
    58    47      0   0   0
    58    57      0   0   0
    58    59      0   0   0
    58    69      0   0   0
    58    70      0   0   0
    58    58      0   0   1
    58    58      0   0  -1
    59    47      0   0   0
    59    48      0   0   0
    59    58      0   0   0
    59    60      0   0   0
    59    70      0   0   0
    59    71      0   0   0
    59    59      0   0   1
    59    59      0   0  -1
    60    37      0   0   0
    60    48      0   0   0
    60    49      0   0   0
    60    59      0   0   0
    60    71      0   0   0
    60    72      0   0   0
    60    60      0   0   1
    60    60      0   0  -1
    61    49      0   0   0
    61    50      0   0   0
    61    62      0   0   0
    61    72      0   0   0
    61    84      0   0   0
    61    73      1   0   0
    61    61      0   0   1
    61    61      0   0  -1
    62    50      0   0   0
    62    51      0   0   0
    62    61      0   0   0
    62    63      1   0   0
    62    73      1   0   0
    62    74      1   0   0
    62    62      0   0   1
    62    62      0   0  -1
    63    64      0   0   0
    63    74      0   0   0
    63    75      0   0   0
    63    51     -1   0   0
    63    52     -1   0   0
    63    62     -1   0   0
    63    63      0   0   1
    63    63      0   0  -1
    64    63      0   0   0
    64    65      0   0   0
    64    75      0   0   0
    64    76      0   0   0
    64    52     -1   0   0
    64    53     -1   0   0
    64    64      0   0   1
    64    64      0   0  -1
    65    64      0   0   0
    65    76      0   0   0
    65    77      0   0   0
    65    54     -1   1   0
    65    66     -1   1   0
    65    53     -1   0   0
    65    65      0   0   1
    65    65      0   0  -1
    66    54      0   0   0
    66    55      0   0   0
    66    67      0   0   0
    66    65      1  -1   0
    66    77      1  -1   0
    66    78      1  -1   0
    66    66      0   0   1
    66    66      0   0  -1
    67    55      0   0   0
    67    56      0   0   0
    67    66      0   0   0
    67    68      0   0   0
    67    79      0   0   0
    67    78      1  -1   0
    67    67      0   0   1
    67    67      0   0  -1
    68    56      0   0   0
    68    57      0   0   0
    68    67      0   0   0
    68    69      0   0   0
    68    79      0   0   0
    68    80      0   0   0
    68    68      0   0   1
    68    68      0   0  -1
    69    57      0   0   0
    69    58      0   0   0
    69    68      0   0   0
    69    70      0   0   0
    69    80      0   0   0
    69    81      0   0   0
    69    69      0   0   1
    69    69      0   0  -1
    70    58      0   0   0
    70    59      0   0   0
    70    69      0   0   0
    70    71      0   0   0
    70    81      0   0   0
    70    82      0   0   0
    70    70      0   0   1
    70    70      0   0  -1
    71    59      0   0   0
    71    60      0   0   0
    71    70      0   0   0
    71    72      0   0   0
    71    82      0   0   0
    71    83      0   0   0
    71    71      0   0   1
    71    71      0   0  -1
    72    49      0   0   0
    72    60      0   0   0
    72    61      0   0   0
    72    71      0   0   0
    72    83      0   0   0
    72    84      0   0   0
    72    72      0   0   1
    72    72      0   0  -1
    73    74      0   0   0
    73    85      0   0   0
    73    96      0   0   0
    73    61     -1   0   0
    73    62     -1   0   0
    73    84     -1   0   0
    73    73      0   0   1
    73    73      0   0  -1
    74    63      0   0   0
    74    73      0   0   0
    74    75      0   0   0
    74    85      0   0   0
    74    86      0   0   0
    74    62     -1   0   0
    74    74      0   0   1
    74    74      0   0  -1
    75    63      0   0   0
    75    64      0   0   0
    75    74      0   0   0
    75    76      0   0   0
    75    86      0   0   0
    75    87      0   0   0
    75    75      0   0   1
    75    75      0   0  -1
    76    64      0   0   0
    76    65      0   0   0
    76    75      0   0   0
    76    77      0   0   0
    76    87      0   0   0
    76    88      0   0   0
    76    76      0   0   1
    76    76      0   0  -1
    77    65      0   0   0
    77    76      0   0   0
    77    78      0   0   0
    77    88      0   0   0
    77    89      0   0   0
    77    66     -1   1   0
    77    77      0   0   1
    77    77      0   0  -1
    78    77      0   0   0
    78    89      0   0   0
    78    90      0   0   0
    78    66     -1   1   0
    78    67     -1   1   0
    78    79     -1   1   0
    78    78      0   0   1
    78    78      0   0  -1
    79    67      0   0   0
    79    68      0   0   0
    79    80      0   0   0
    79    78      1  -1   0
    79    90      1  -1   0
    79    91      1  -1   0
    79    79      0   0   1
    79    79      0   0  -1
    80    68      0   0   0
    80    69      0   0   0
    80    79      0   0   0
    80    81      0   0   0
    80    91      1  -1   0
    80    92      1  -1   0
    80    80      0   0   1
    80    80      0   0  -1
    81    69      0   0   0
    81    70      0   0   0
    81    80      0   0   0
    81    82      0   0   0
    81    93      0   0   0
    81    92      1  -1   0
    81    81      0   0   1
    81    81      0   0  -1
    82    70      0   0   0
    82    71      0   0   0
    82    81      0   0   0
    82    83      0   0   0
    82    93      0   0   0
    82    94      0   0   0
    82    82      0   0   1
    82    82      0   0  -1
    83    71      0   0   0
    83    72      0   0   0
    83    82      0   0   0
    83    84      0   0   0
    83    94      0   0   0
    83    95      0   0   0
    83    83      0   0   1
    83    83      0   0  -1
    84    61      0   0   0
    84    72      0   0   0
    84    83      0   0   0
    84    95      0   0   0
    84    73      1   0   0
    84    96      1   0   0
    84    84      0   0   1
    84    84      0   0  -1
    85    73      0   0   0
    85    74      0   0   0
    85    86      0   0   0
    85    96      0   0   0
    85    97      0   0   0
    85   108      0   0   0
    85    85      0   0   1
    85    85      0   0  -1
    86    74      0   0   0
    86    75      0   0   0
    86    85      0   0   0
    86    87      0   0   0
    86    97      0   0   0
    86    98      0   0   0
    86    86      0   0   1
    86    86      0   0  -1
    87    75      0   0   0
    87    76      0   0   0
    87    86      0   0   0
    87    88      0   0   0
    87    98      0   0   0
    87    99      0   0   0
    87    87      0   0   1
    87    87      0   0  -1
    88    76      0   0   0
    88    77      0   0   0
    88    87      0   0   0
    88    89      0   0   0
    88    99      0   0   0
    88   100      0   0   0
    88    88      0   0   1
    88    88      0   0  -1
    89    77      0   0   0
    89    78      0   0   0
    89    88      0   0   0
    89    90      0   0   0
    89   100      0   0   0
    89   101      0   0   0
    89    89      0   0   1
    89    89      0   0  -1
    90    78      0   0   0
    90    89      0   0   0
    90    91      0   0   0
    90   101      0   0   0
    90   102      0   0   0
    90    79     -1   1   0
    90    90      0   0   1
    90    90      0   0  -1
    91    90      0   0   0
    91    92      0   0   0
    91   102      0   0   0
    91   103      0   0   0
    91    79     -1   1   0
    91    80     -1   1   0
    91    91      0   0   1
    91    91      0   0  -1
    92    91      0   0   0
    92   103      0   0   0
    92   104      0   0   0
    92    80     -1   1   0
    92    81     -1   1   0
    92    93     -1   1   0
    92    92      0   0   1
    92    92      0   0  -1
    93    81      0   0   0
    93    82      0   0   0
    93    94      0   0   0
    93   105      1   0   0
    93    92      1  -1   0
    93   104      1  -1   0
    93    93      0   0   1
    93    93      0   0  -1
    94    82      0   0   0
    94    83      0   0   0
    94    93      0   0   0
    94    95      0   0   0
    94   105      1   0   0
    94   106      1   0   0
    94    94      0   0   1
    94    94      0   0  -1
    95    83      0   0   0
    95    84      0   0   0
    95    94      0   0   0
    95    96      1   0   0
    95   106      1   0   0
    95   107      1   0   0
    95    95      0   0   1
    95    95      0   0  -1
    96    73      0   0   0
    96    85      0   0   0
    96   107      0   0   0
    96   108      0   0   0
    96    84     -1   0   0
    96    95     -1   0   0
    96    96      0   0   1
    96    96      0   0  -1
    97    85      0   0   0
    97    86      0   0   0
    97    98      0   0   0
    97   108      0   0   0
    97   109      0   0   0
    97   120      0   0   0
    97    97      0   0   1
    97    97      0   0  -1
    98    86      0   0   0
    98    87      0   0   0
    98    97      0   0   0
    98    99      0   0   0
    98   109      0   0   0
    98   110      0   0   0
    98    98      0   0   1
    98    98      0   0  -1
    99    87      0   0   0
    99    88      0   0   0
    99    98      0   0   0
    99   100      0   0   0
    99   110      0   0   0
    99   111      0   0   0
    99    99      0   0   1
    99    99      0   0  -1
   100    88      0   0   0
   100    89      0   0   0
   100    99      0   0   0
   100   101      0   0   0
   100   111      0   0   0
   100   112      0   0   0
   100   100      0   0   1
   100   100      0   0  -1
   101    89      0   0   0
   101    90      0   0   0
   101   100      0   0   0
   101   102      0   0   0
   101   112      0   0   0
   101   113      0   0   0
   101   101      0   0   1
   101   101      0   0  -1
   102    90      0   0   0
   102    91      0   0   0
   102   101      0   0   0
   102   103      0   0   0
   102   113      0   0   0
   102   114      0   0   0
   102   102      0   0   1
   102   102      0   0  -1
   103    91      0   0   0
   103    92      0   0   0
   103   102      0   0   0
   103   104      0   0   0
   103   114      0   0   0
   103   115      0   0   0
   103   103      0   0   1
   103   103      0   0  -1
   104    92      0   0   0
   104   103      0   0   0
   104   115      0   0   0
   104   116      0   0   0
   104    93     -1   1   0
   104   105      0   1   0
   104   104      0   0   1
   104   104      0   0  -1
   105   106      0   0   0
   105   117      0   0   0
   105    93     -1   0   0
   105    94     -1   0   0
   105   104      0  -1   0
   105   116      0  -1   0
   105   105      0   0   1
   105   105      0   0  -1
   106   105      0   0   0
   106   107      0   0   0
   106   117      0   0   0
   106   118      0   0   0
   106    94     -1   0   0
   106    95     -1   0   0
   106   106      0   0   1
   106   106      0   0  -1
   107    96      0   0   0
   107   106      0   0   0
   107   108      0   0   0
   107   118      0   0   0
   107   119      0   0   0
   107    95     -1   0   0
   107   107      0   0   1
   107   107      0   0  -1
   108    85      0   0   0
   108    96      0   0   0
   108    97      0   0   0
   108   107      0   0   0
   108   119      0   0   0
   108   120      0   0   0
   108   108      0   0   1
   108   108      0   0  -1
   109    97      0   0   0
   109    98      0   0   0
   109   110      0   0   0
   109   120      0   0   0
   109   121      0   0   0
   109   132      0   0   0
   109   109      0   0   1
   109   109      0   0  -1
   110    98      0   0   0
   110    99      0   0   0
   110   109      0   0   0
   110   111      0   0   0
   110   121      0   0   0
   110   122      0   0   0
   110   110      0   0   1
   110   110      0   0  -1
   111    99      0   0   0
   111   100      0   0   0
   111   110      0   0   0
   111   112      0   0   0
   111   122      0   0   0
   111   123      0   0   0
   111   111      0   0   1
   111   111      0   0  -1
   112   100      0   0   0
   112   101      0   0   0
   112   111      0   0   0
   112   113      0   0   0
   112   123      0   0   0
   112   124      0   0   0
   112   112      0   0   1
   112   112      0   0  -1
   113   101      0   0   0
   113   102      0   0   0
   113   112      0   0   0
   113   114      0   0   0
   113   124      0   0   0
   113   125      0   0   0
   113   113      0   0   1
   113   113      0   0  -1
   114   102      0   0   0
   114   103      0   0   0
   114   113      0   0   0
   114   115      0   0   0
   114   125      0   0   0
   114   126      0   0   0
   114   114      0   0   1
   114   114      0   0  -1
   115   103      0   0   0
   115   104      0   0   0
   115   114      0   0   0
   115   116      0   0   0
   115   126      0   0   0
   115   127      0   0   0
   115   115      0   0   1
   115   115      0   0  -1
   116   104      0   0   0
   116   115      0   0   0
   116   127      0   0   0
   116   105      0   1   0
   116   117      0   1   0
   116   128      0   1   0
   116   116      0   0   1
   116   116      0   0  -1
   117   105      0   0   0
   117   106      0   0   0
   117   118      0   0   0
   117   128      0   0   0
   117   129      0   0   0
   117   116      0  -1   0
   117   117      0   0   1
   117   117      0   0  -1
   118   106      0   0   0
   118   107      0   0   0
   118   117      0   0   0
   118   119      0   0   0
   118   129      0   0   0
   118   130      0   0   0
   118   118      0   0   1
   118   118      0   0  -1
   119   107      0   0   0
   119   108      0   0   0
   119   118      0   0   0
   119   120      0   0   0
   119   130      0   0   0
   119   131      0   0   0
   119   119      0   0   1
   119   119      0   0  -1
   120    97      0   0   0
   120   108      0   0   0
   120   109      0   0   0
   120   119      0   0   0
   120   131      0   0   0
   120   132      0   0   0
   120   120      0   0   1
   120   120      0   0  -1
   121   109      0   0   0
   121   110      0   0   0
   121   122      0   0   0
   121   132      0   0   0
   121   133      0   0   0
   121   144      0   0   0
   121   121      0   0   1
   121   121      0   0  -1
   122   110      0   0   0
   122   111      0   0   0
   122   121      0   0   0
   122   123      0   0   0
   122   133      0   0   0
   122   134      0   0   0
   122   122      0   0   1
   122   122      0   0  -1
   123   111      0   0   0
   123   112      0   0   0
   123   122      0   0   0
   123   124      0   0   0
   123   134      0   0   0
   123   135      0   0   0
   123   123      0   0   1
   123   123      0   0  -1
   124   112      0   0   0
   124   113      0   0   0
   124   123      0   0   0
   124   125      0   0   0
   124   135      0   0   0
   124   136      0   0   0
   124   124      0   0   1
   124   124      0   0  -1
   125   113      0   0   0
   125   114      0   0   0
   125   124      0   0   0
   125   126      0   0   0
   125   136      0   0   0
   125   137      0   0   0
   125   125      0   0   1
   125   125      0   0  -1
   126   114      0   0   0
   126   115      0   0   0
   126   125      0   0   0
   126   127      0   0   0
   126   137      0   0   0
   126   138      0   0   0
   126   126      0   0   1
   126   126      0   0  -1
   127   115      0   0   0
   127   116      0   0   0
   127   126      0   0   0
   127   138      0   0   0
   127   139      0   0   0
   127   128      0   1   0
   127   127      0   0   1
   127   127      0   0  -1
   128   117      0   0   0
   128   129      0   0   0
   128   140      0   0   0
   128   116      0  -1   0
   128   127      0  -1   0
   128   139      0  -1   0
   128   128      0   0   1
   128   128      0   0  -1
   129   117      0   0   0
   129   118      0   0   0
   129   128      0   0   0
   129   130      0   0   0
   129   140      0   0   0
   129   141      0   0   0
   129   129      0   0   1
   129   129      0   0  -1
   130   118      0   0   0
   130   119      0   0   0
   130   129      0   0   0
   130   131      0   0   0
   130   141      0   0   0
   130   142      0   0   0
   130   130      0   0   1
   130   130      0   0  -1
   131   119      0   0   0
   131   120      0   0   0
   131   130      0   0   0
   131   132      0   0   0
   131   142      0   0   0
   131   143      0   0   0
   131   131      0   0   1
   131   131      0   0  -1
   132   109      0   0   0
   132   120      0   0   0
   132   121      0   0   0
   132   131      0   0   0
   132   143      0   0   0
   132   144      0   0   0
   132   132      0   0   1
   132   132      0   0  -1
   133     1      0   0   0
   133    12      0   0   0
   133   121      0   0   0
   133   122      0   0   0
   133   134      0   0   0
   133   144      0   0   0
   133   133      0   0   1
   133   133      0   0  -1
   134     1      0   0   0
   134     2      0   0   0
   134   122      0   0   0
   134   123      0   0   0
   134   133      0   0   0
   134   135      0   0   0
   134   134      0   0   1
   134   134      0   0  -1
   135     2      0   0   0
   135     3      0   0   0
   135   123      0   0   0
   135   124      0   0   0
   135   134      0   0   0
   135   136      0   0   0
   135   135      0   0   1
   135   135      0   0  -1
   136     3      0   0   0
   136     4      0   0   0
   136   124      0   0   0
   136   125      0   0   0
   136   135      0   0   0
   136   137      0   0   0
   136   136      0   0   1
   136   136      0   0  -1
   137     4      0   0   0
   137     5      0   0   0
   137   125      0   0   0
   137   126      0   0   0
   137   136      0   0   0
   137   138      0   0   0
   137   137      0   0   1
   137   137      0   0  -1
   138     5      0   0   0
   138     6      0   0   0
   138   126      0   0   0
   138   127      0   0   0
   138   137      0   0   0
   138   139      0   0   0
   138   138      0   0   1
   138   138      0   0  -1
   139     6      0   0   0
   139   127      0   0   0
   139   138      0   0   0
   139     7      0   1   0
   139   128      0   1   0
   139   140      0   1   0
   139   139      0   0   1
   139   139      0   0  -1
   140     7      0   0   0
   140     8      0   0   0
   140   128      0   0   0
   140   129      0   0   0
   140   141      0   0   0
   140   139      0  -1   0
   140   140      0   0   1
   140   140      0   0  -1
   141     8      0   0   0
   141     9      0   0   0
   141   129      0   0   0
   141   130      0   0   0
   141   140      0   0   0
   141   142      0   0   0
   141   141      0   0   1
   141   141      0   0  -1
   142     9      0   0   0
   142    10      0   0   0
   142   130      0   0   0
   142   131      0   0   0
   142   141      0   0   0
   142   143      0   0   0
   142   142      0   0   1
   142   142      0   0  -1
   143    10      0   0   0
   143    11      0   0   0
   143   131      0   0   0
   143   132      0   0   0
   143   142      0   0   0
   143   144      0   0   0
   143   143      0   0   1
   143   143      0   0  -1
   144    11      0   0   0
   144    12      0   0   0
   144   121      0   0   0
   144   132      0   0   0
   144   133      0   0   0
   144   143      0   0   0
   144   144      0   0   1
   144   144      0   0  -1
end nnkpts

begin exclude_bands
   0
end exclude_bands
