
     Program PWSCF v.6.7MaX starts on  1Jan2023 at 18:15:41 

     This program is part of the open-source Quantum ESPRESSO suite
     for quantum simulation of materials; please cite
         "P. Giannozzi et al., J. Phys.:Condens. Matter 21 395502 (2009);
         "P. Giannozzi et al., J. Phys.:Condens. Matter 29 465901 (2017);
          URL http://www.quantum-espresso.org", 
     in publications or presentations arising from this work. More details at
     http://www.quantum-espresso.org/quote

     Parallel version (MPI), running on     4 processors

     MPI processes distributed on     1 nodes
     R & G space division:  proc/nbgrp/npool/nimage =       4
     Waiting for input...
     Reading input from standard input

     Current dimensions of program PWSCF are:
     Max number of different atomic species (ntypx) = 10
     Max number of k-points (npk) =  40000
     Max angular momentum in pseudopotentials (lmaxx) =  3

     Atomic positions and unit cell read from directory:
     ./out/gete.save/
     Atomic positions from file used, from input discarded


     Subspace diagonalization in iterative solution of the eigenvalue problem:
     one sub-group per band group will be used
     scalapack distributed-memory algorithm (size of sub-group:  2*  2 procs)

     Message from routine setup:
     using ibrav=0 with symmetry is DISCOURAGED, use correct ibrav instead

     Parallelization info
     --------------------
     sticks:   dense  smooth     PW     G-vecs:    dense   smooth      PW
     Min         354     180     52                 8906     3156     520
     Max         355     181     53                 8910     3157     522
     Sum        1417     721    211                35629    12627    2085



     bravais-lattice index     =            0
     lattice parameter (alat)  =       8.0509  a.u.
     unit-cell volume          =     368.9970 (a.u.)^3
     number of atoms/cell      =            2
     number of atomic types    =            2
     number of electrons       =        20.00
     number of Kohn-Sham states=           30
     kinetic-energy cutoff     =      40.0000  Ry
     charge density cutoff     =     320.0000  Ry
     Exchange-correlation= SLA  PW   PSX  PSC
                           (   1   4  10   8   0   0   0)

     celldm(1)=   8.050928  celldm(2)=   0.000000  celldm(3)=   0.000000
     celldm(4)=   0.000000  celldm(5)=   0.000000  celldm(6)=   0.000000

     crystal axes: (cart. coord. in units of alat)
               a(1) = (   1.000000   0.000000   0.000000 )  
               a(2) = (   0.500000   0.866025   0.000000 )  
               a(3) = (   0.500000   0.288675   0.816497 )  

     reciprocal axes: (cart. coord. in units 2 pi/alat)
               b(1) = (  1.000000 -0.577350 -0.408248 )  
               b(2) = (  0.000000  1.154701 -0.408248 )  
               b(3) = (  0.000000  0.000000  1.224745 )  


     PseudoPot. # 1 for Ge read from file:
     ./pseudo/ge_pbesol_v1.4.uspp.F.UPF
     MD5 check sum: 7bed0412183f5e553a4d27ec7023354d
     Pseudo is Ultrasoft + core correction, Zval = 14.0
     Generated by new atomic code, or converted to UPF format
     Using radial grid of  873 points,  6 beta functions with: 
                l(1) =   0
                l(2) =   0
                l(3) =   1
                l(4) =   1
                l(5) =   2
                l(6) =   2
     Q(r) pseudized with  8 coefficients,  rinner =    1.400   1.400   1.400
                                                       1.400   1.400

     PseudoPot. # 2 for Te read from file:
     ./pseudo/te_pbesol_v1.uspp.F.UPF
     MD5 check sum: 44ee7635674656c288d8e9a9a9ffd7e3
     Pseudo is Ultrasoft + core correction, Zval =  6.0
     Generated by new atomic code, or converted to UPF format
     Using radial grid of  891 points,  5 beta functions with: 
                l(1) =   0
                l(2) =   0
                l(3) =   1
                l(4) =   1
                l(5) =   2
     Q(r) pseudized with  6 coefficients,  rinner =    1.800   1.800   1.800
                                                       1.800   1.800

     atomic species   valence    mass     pseudopotential
        Ge            14.00    72.64000     Ge( 1.00)
        Te             6.00   127.60000     Te( 1.00)

     12 Sym. Ops., with inversion, found


                                    s                        frac. trans.

      isym =  1     identity                                     

 cryst.   s( 1) = (     1          0          0      )
                  (     0          1          0      )
                  (     0          0          1      )

 cart.    s( 1) = (  1.0000000  0.0000000  0.0000000 )
                  (  0.0000000  1.0000000 -0.0000000 )
                  (  0.0000000  0.0000000  1.0000000 )


      isym =  2     180 deg rotation - cart. axis [1,0,0]        

 cryst.   s( 2) = (     1          0          0      )
                  (     1         -1          0      )
                  (     1          0         -1      )

 cart.    s( 2) = (  1.0000000 -0.0000000 -0.0000000 )
                  (  0.0000000 -1.0000000  0.0000000 )
                  (  0.0000000  0.0000000 -1.0000000 )


      isym =  3     120 deg rotation - cryst. axis [0,0,1]       

 cryst.   s( 3) = (    -1          1          0      )
                  (    -1          0          0      )
                  (    -1          0          1      )

 cart.    s( 3) = ( -0.5000000 -0.8660254  0.0000000 )
                  (  0.8660254 -0.5000000 -0.0000000 )
                  (  0.0000000  0.0000000  1.0000000 )


      isym =  4     120 deg rotation - cryst. axis [0,0,-1]      

 cryst.   s( 4) = (     0         -1          0      )
                  (     1         -1          0      )
                  (     0         -1          1      )

 cart.    s( 4) = ( -0.5000000  0.8660254  0.0000000 )
                  ( -0.8660254 -0.5000000  0.0000000 )
                  (  0.0000000  0.0000000  1.0000000 )


      isym =  5     180 deg rotation - cryst. axis [0,1,0]       

 cryst.   s( 5) = (     0         -1          0      )
                  (    -1          0          0      )
                  (     0          0         -1      )

 cart.    s( 5) = ( -0.5000000 -0.8660254 -0.0000000 )
                  ( -0.8660254  0.5000000  0.0000000 )
                  (  0.0000000  0.0000000 -1.0000000 )


      isym =  6     180 deg rotation - cryst. axis [1,1,0]       

 cryst.   s( 6) = (    -1          1          0      )
                  (     0          1          0      )
                  (     0          1         -1      )

 cart.    s( 6) = ( -0.5000000  0.8660254 -0.0000000 )
                  (  0.8660254  0.5000000 -0.0000000 )
                  (  0.0000000  0.0000000 -1.0000000 )


      isym =  7     inversion                                    

 cryst.   s( 7) = (    -1          0          0      )
                  (     0         -1          0      )
                  (     0          0         -1      )

 cart.    s( 7) = ( -1.0000000  0.0000000  0.0000000 )
                  (  0.0000000 -1.0000000  0.0000000 )
                  (  0.0000000  0.0000000 -1.0000000 )


      isym =  8     inv. 180 deg rotation - cart. axis [1,0,0]   

 cryst.   s( 8) = (    -1          0          0      )
                  (    -1          1          0      )
                  (    -1          0          1      )

 cart.    s( 8) = ( -1.0000000  0.0000000  0.0000000 )
                  (  0.0000000  1.0000000 -0.0000000 )
                  (  0.0000000  0.0000000  1.0000000 )


      isym =  9     inv. 120 deg rotation - cryst. axis [0,0,1]  

 cryst.   s( 9) = (     1         -1          0      )
                  (     1          0          0      )
                  (     1          0         -1      )

 cart.    s( 9) = (  0.5000000  0.8660254 -0.0000000 )
                  ( -0.8660254  0.5000000  0.0000000 )
                  (  0.0000000  0.0000000 -1.0000000 )


      isym = 10     inv. 120 deg rotation - cryst. axis [0,0,-1] 

 cryst.   s(10) = (     0          1          0      )
                  (    -1          1          0      )
                  (     0          1         -1      )

 cart.    s(10) = (  0.5000000 -0.8660254 -0.0000000 )
                  (  0.8660254  0.5000000 -0.0000000 )
                  (  0.0000000  0.0000000 -1.0000000 )


      isym = 11     inv. 180 deg rotation - cryst. axis [0,1,0]  

 cryst.   s(11) = (     0          1          0      )
                  (     1          0          0      )
                  (     0          0          1      )

 cart.    s(11) = (  0.5000000  0.8660254  0.0000000 )
                  (  0.8660254 -0.5000000 -0.0000000 )
                  (  0.0000000  0.0000000  1.0000000 )


      isym = 12     inv. 180 deg rotation - cryst. axis [1,1,0]  

 cryst.   s(12) = (     1         -1          0      )
                  (     0         -1          0      )
                  (     0         -1          1      )

 cart.    s(12) = (  0.5000000 -0.8660254  0.0000000 )
                  ( -0.8660254 -0.5000000  0.0000000 )
                  (  0.0000000  0.0000000  1.0000000 )


   Cartesian axes

     site n.     atom                  positions (alat units)
         1           Ge  tau(   1) = (   0.0000000   0.0000000   0.0000000  )
         2           Te  tau(   2) = (   1.0000000   0.5773503   0.4082483  )

   Crystallographic axes

     site n.     atom                  positions (cryst. coord.)
         1           Ge  tau(   1) = (  0.0000000  0.0000000  0.0000000  )
         2           Te  tau(   2) = (  0.5000000  0.5000000  0.5000000  )

     number of k points=   201
                       cart. coord. in units 2pi/alat
        k(    1) = (   0.5000000  -0.0000000   0.6123724), wk =   0.0099502
        k(    2) = (   0.5000000   0.0057735   0.6042075), wk =   0.0099502
        k(    3) = (   0.5000000   0.0115470   0.5960425), wk =   0.0099502
        k(    4) = (   0.5000000   0.0173205   0.5878775), wk =   0.0099502
        k(    5) = (   0.5000000   0.0230940   0.5797126), wk =   0.0099502
        k(    6) = (   0.5000000   0.0288675   0.5715476), wk =   0.0099502
        k(    7) = (   0.5000000   0.0346410   0.5633826), wk =   0.0099502
        k(    8) = (   0.5000000   0.0404145   0.5552177), wk =   0.0099502
        k(    9) = (   0.5000000   0.0461880   0.5470527), wk =   0.0099502
        k(   10) = (   0.5000000   0.0519615   0.5388877), wk =   0.0099502
        k(   11) = (   0.5000000   0.0577350   0.5307228), wk =   0.0099502
        k(   12) = (   0.5000000   0.0635085   0.5225578), wk =   0.0099502
        k(   13) = (   0.5000000   0.0692820   0.5143928), wk =   0.0099502
        k(   14) = (   0.5000000   0.0750555   0.5062279), wk =   0.0099502
        k(   15) = (   0.5000000   0.0808290   0.4980629), wk =   0.0099502
        k(   16) = (   0.5000000   0.0866025   0.4898979), wk =   0.0099502
        k(   17) = (   0.5000000   0.0923760   0.4817330), wk =   0.0099502
        k(   18) = (   0.5000000   0.0981495   0.4735680), wk =   0.0099502
        k(   19) = (   0.5000000   0.1039230   0.4654031), wk =   0.0099502
        k(   20) = (   0.5000000   0.1096966   0.4572381), wk =   0.0099502
        k(   21) = (   0.5000000   0.1154701   0.4490731), wk =   0.0099502
        k(   22) = (   0.5000000   0.1212436   0.4409082), wk =   0.0099502
        k(   23) = (   0.5000000   0.1270171   0.4327432), wk =   0.0099502
        k(   24) = (   0.5000000   0.1327906   0.4245782), wk =   0.0099502
        k(   25) = (   0.5000000   0.1385641   0.4164133), wk =   0.0099502
        k(   26) = (   0.5000000   0.1443376   0.4082483), wk =   0.0099502
        k(   27) = (   0.5000000   0.1501111   0.4000833), wk =   0.0099502
        k(   28) = (   0.5000000   0.1558846   0.3919184), wk =   0.0099502
        k(   29) = (   0.5000000   0.1616581   0.3837534), wk =   0.0099502
        k(   30) = (   0.5000000   0.1674316   0.3755884), wk =   0.0099502
        k(   31) = (   0.5000000   0.1732051   0.3674235), wk =   0.0099502
        k(   32) = (   0.5000000   0.1789786   0.3592585), wk =   0.0099502
        k(   33) = (   0.5000000   0.1847521   0.3510935), wk =   0.0099502
        k(   34) = (   0.5000000   0.1905256   0.3429286), wk =   0.0099502
        k(   35) = (   0.5000000   0.1962991   0.3347636), wk =   0.0099502
        k(   36) = (   0.5000000   0.2020726   0.3265986), wk =   0.0099502
        k(   37) = (   0.5000000   0.2078461   0.3184337), wk =   0.0099502
        k(   38) = (   0.5000000   0.2136196   0.3102687), wk =   0.0099502
        k(   39) = (   0.5000000   0.2193931   0.3021037), wk =   0.0099502
        k(   40) = (   0.5000000   0.2251666   0.2939388), wk =   0.0099502
        k(   41) = (   0.5000000   0.2309401   0.2857738), wk =   0.0099502
        k(   42) = (   0.5000000   0.2367136   0.2776088), wk =   0.0099502
        k(   43) = (   0.5000000   0.2424871   0.2694439), wk =   0.0099502
        k(   44) = (   0.5000000   0.2482606   0.2612789), wk =   0.0099502
        k(   45) = (   0.5000000   0.2540341   0.2531139), wk =   0.0099502
        k(   46) = (   0.5000000   0.2598076   0.2449490), wk =   0.0099502
        k(   47) = (   0.5000000   0.2655811   0.2367840), wk =   0.0099502
        k(   48) = (   0.5000000   0.2713546   0.2286190), wk =   0.0099502
        k(   49) = (   0.5000000   0.2771281   0.2204541), wk =   0.0099502
        k(   50) = (   0.5000000   0.2829016   0.2122891), wk =   0.0099502
        k(   51) = (   0.5000000   0.2886751   0.2041241), wk =   0.0099502
        k(   52) = (   0.5041667   0.2766470   0.2109283), wk =   0.0099502
        k(   53) = (   0.5083333   0.2646189   0.2177324), wk =   0.0099502
        k(   54) = (   0.5125000   0.2525907   0.2245366), wk =   0.0099502
        k(   55) = (   0.5166667   0.2405626   0.2313407), wk =   0.0099502
        k(   56) = (   0.5208333   0.2285345   0.2381448), wk =   0.0099502
        k(   57) = (   0.5250000   0.2165064   0.2449490), wk =   0.0099502
        k(   58) = (   0.5291667   0.2044782   0.2517531), wk =   0.0099502
        k(   59) = (   0.5333333   0.1924501   0.2585573), wk =   0.0099502
        k(   60) = (   0.5375000   0.1804220   0.2653614), wk =   0.0099502
        k(   61) = (   0.5416667   0.1683938   0.2721655), wk =   0.0099502
        k(   62) = (   0.5458333   0.1563657   0.2789697), wk =   0.0099502
        k(   63) = (   0.5500000   0.1443376   0.2857738), wk =   0.0099502
        k(   64) = (   0.5541667   0.1323094   0.2925779), wk =   0.0099502
        k(   65) = (   0.5583333   0.1202813   0.2993821), wk =   0.0099502
        k(   66) = (   0.5625000   0.1082532   0.3061862), wk =   0.0099502
        k(   67) = (   0.5666667   0.0962250   0.3129904), wk =   0.0099502
        k(   68) = (   0.5708333   0.0841969   0.3197945), wk =   0.0099502
        k(   69) = (   0.5750000   0.0721688   0.3265986), wk =   0.0099502
        k(   70) = (   0.5791667   0.0601407   0.3334028), wk =   0.0099502
        k(   71) = (   0.5833333   0.0481125   0.3402069), wk =   0.0099502
        k(   72) = (   0.5875000   0.0360844   0.3470110), wk =   0.0099502
        k(   73) = (   0.5916667   0.0240563   0.3538152), wk =   0.0099502
        k(   74) = (   0.5958333   0.0120281   0.3606193), wk =   0.0099502
        k(   75) = (   0.6000000  -0.0000000   0.3674235), wk =   0.0099502
        k(   76) = (   0.6041667  -0.0120281   0.3742276), wk =   0.0099502
        k(   77) = (   0.6083333  -0.0240563   0.3810317), wk =   0.0099502
        k(   78) = (   0.6125000  -0.0360844   0.3878359), wk =   0.0099502
        k(   79) = (   0.6166667  -0.0481125   0.3946400), wk =   0.0099502
        k(   80) = (   0.6208333  -0.0601407   0.4014442), wk =   0.0099502
        k(   81) = (   0.6250000  -0.0721688   0.4082483), wk =   0.0099502
        k(   82) = (   0.6187500  -0.0829941   0.4082483), wk =   0.0099502
        k(   83) = (   0.6125000  -0.0938194   0.4082483), wk =   0.0099502
        k(   84) = (   0.6062500  -0.1046447   0.4082483), wk =   0.0099502
        k(   85) = (   0.6000000  -0.1154701   0.4082483), wk =   0.0099502
        k(   86) = (   0.5937500  -0.1262954   0.4082483), wk =   0.0099502
        k(   87) = (   0.5875000  -0.1371207   0.4082483), wk =   0.0099502
        k(   88) = (   0.5812500  -0.1479460   0.4082483), wk =   0.0099502
        k(   89) = (   0.5750000  -0.1587713   0.4082483), wk =   0.0099502
        k(   90) = (   0.5687500  -0.1695966   0.4082483), wk =   0.0099502
        k(   91) = (   0.5625000  -0.1804220   0.4082483), wk =   0.0099502
        k(   92) = (   0.5562500  -0.1912473   0.4082483), wk =   0.0099502
        k(   93) = (   0.5500000  -0.2020726   0.4082483), wk =   0.0099502
        k(   94) = (   0.5437500  -0.2128979   0.4082483), wk =   0.0099502
        k(   95) = (   0.5375000  -0.2237232   0.4082483), wk =   0.0099502
        k(   96) = (   0.5312500  -0.2345485   0.4082483), wk =   0.0099502
        k(   97) = (   0.5250000  -0.2453739   0.4082483), wk =   0.0099502
        k(   98) = (   0.5187500  -0.2561992   0.4082483), wk =   0.0099502
        k(   99) = (   0.5125000  -0.2670245   0.4082483), wk =   0.0099502
        k(  100) = (   0.5062500  -0.2778498   0.4082483), wk =   0.0099502
        k(  101) = (   0.5000000  -0.2886751   0.4082483), wk =   0.0099502
        k(  102) = (   0.4900000  -0.2829016   0.4000833), wk =   0.0099502
        k(  103) = (   0.4800000  -0.2771281   0.3919184), wk =   0.0099502
        k(  104) = (   0.4700000  -0.2713546   0.3837534), wk =   0.0099502
        k(  105) = (   0.4600000  -0.2655811   0.3755884), wk =   0.0099502
        k(  106) = (   0.4500000  -0.2598076   0.3674235), wk =   0.0099502
        k(  107) = (   0.4400000  -0.2540341   0.3592585), wk =   0.0099502
        k(  108) = (   0.4300000  -0.2482606   0.3510935), wk =   0.0099502
        k(  109) = (   0.4200000  -0.2424871   0.3429286), wk =   0.0099502
        k(  110) = (   0.4100000  -0.2367136   0.3347636), wk =   0.0099502
        k(  111) = (   0.4000000  -0.2309401   0.3265986), wk =   0.0099502
        k(  112) = (   0.3900000  -0.2251666   0.3184337), wk =   0.0099502
        k(  113) = (   0.3800000  -0.2193931   0.3102687), wk =   0.0099502
        k(  114) = (   0.3700000  -0.2136196   0.3021037), wk =   0.0099502
        k(  115) = (   0.3600000  -0.2078461   0.2939388), wk =   0.0099502
        k(  116) = (   0.3500000  -0.2020726   0.2857738), wk =   0.0099502
        k(  117) = (   0.3400000  -0.1962991   0.2776088), wk =   0.0099502
        k(  118) = (   0.3300000  -0.1905256   0.2694439), wk =   0.0099502
        k(  119) = (   0.3200000  -0.1847521   0.2612789), wk =   0.0099502
        k(  120) = (   0.3100000  -0.1789786   0.2531139), wk =   0.0099502
        k(  121) = (   0.3000000  -0.1732051   0.2449490), wk =   0.0099502
        k(  122) = (   0.2900000  -0.1674316   0.2367840), wk =   0.0099502
        k(  123) = (   0.2800000  -0.1616581   0.2286190), wk =   0.0099502
        k(  124) = (   0.2700000  -0.1558846   0.2204541), wk =   0.0099502
        k(  125) = (   0.2600000  -0.1501111   0.2122891), wk =   0.0099502
        k(  126) = (   0.2500000  -0.1443376   0.2041241), wk =   0.0099502
        k(  127) = (   0.2400000  -0.1385641   0.1959592), wk =   0.0099502
        k(  128) = (   0.2300000  -0.1327906   0.1877942), wk =   0.0099502
        k(  129) = (   0.2200000  -0.1270171   0.1796292), wk =   0.0099502
        k(  130) = (   0.2100000  -0.1212436   0.1714643), wk =   0.0099502
        k(  131) = (   0.2000000  -0.1154701   0.1632993), wk =   0.0099502
        k(  132) = (   0.1900000  -0.1096966   0.1551344), wk =   0.0099502
        k(  133) = (   0.1800000  -0.1039230   0.1469694), wk =   0.0099502
        k(  134) = (   0.1700000  -0.0981495   0.1388044), wk =   0.0099502
        k(  135) = (   0.1600000  -0.0923760   0.1306395), wk =   0.0099502
        k(  136) = (   0.1500000  -0.0866025   0.1224745), wk =   0.0099502
        k(  137) = (   0.1400000  -0.0808290   0.1143095), wk =   0.0099502
        k(  138) = (   0.1300000  -0.0750555   0.1061446), wk =   0.0099502
        k(  139) = (   0.1200000  -0.0692820   0.0979796), wk =   0.0099502
        k(  140) = (   0.1100000  -0.0635085   0.0898146), wk =   0.0099502
        k(  141) = (   0.1000000  -0.0577350   0.0816497), wk =   0.0099502
        k(  142) = (   0.0900000  -0.0519615   0.0734847), wk =   0.0099502
        k(  143) = (   0.0800000  -0.0461880   0.0653197), wk =   0.0099502
        k(  144) = (   0.0700000  -0.0404145   0.0571548), wk =   0.0099502
        k(  145) = (   0.0600000  -0.0346410   0.0489898), wk =   0.0099502
        k(  146) = (   0.0500000  -0.0288675   0.0408248), wk =   0.0099502
        k(  147) = (   0.0400000  -0.0230940   0.0326599), wk =   0.0099502
        k(  148) = (   0.0300000  -0.0173205   0.0244949), wk =   0.0099502
        k(  149) = (   0.0200000  -0.0115470   0.0163299), wk =   0.0099502
        k(  150) = (   0.0100000  -0.0057735   0.0081650), wk =   0.0099502
        k(  151) = (   0.0000000   0.0000000   0.0000000), wk =   0.0099502
        k(  152) = (   0.0075000   0.0043301   0.0122474), wk =   0.0099502
        k(  153) = (   0.0150000   0.0086603   0.0244949), wk =   0.0099502
        k(  154) = (   0.0225000   0.0129904   0.0367423), wk =   0.0099502
        k(  155) = (   0.0300000   0.0173205   0.0489898), wk =   0.0099502
        k(  156) = (   0.0375000   0.0216506   0.0612372), wk =   0.0099502
        k(  157) = (   0.0450000   0.0259808   0.0734847), wk =   0.0099502
        k(  158) = (   0.0525000   0.0303109   0.0857321), wk =   0.0099502
        k(  159) = (   0.0600000   0.0346410   0.0979796), wk =   0.0099502
        k(  160) = (   0.0675000   0.0389711   0.1102270), wk =   0.0099502
        k(  161) = (   0.0750000   0.0433013   0.1224745), wk =   0.0099502
        k(  162) = (   0.0825000   0.0476314   0.1347219), wk =   0.0099502
        k(  163) = (   0.0900000   0.0519615   0.1469694), wk =   0.0099502
        k(  164) = (   0.0975000   0.0562917   0.1592168), wk =   0.0099502
        k(  165) = (   0.1050000   0.0606218   0.1714643), wk =   0.0099502
        k(  166) = (   0.1125000   0.0649519   0.1837117), wk =   0.0099502
        k(  167) = (   0.1200000   0.0692820   0.1959592), wk =   0.0099502
        k(  168) = (   0.1275000   0.0736122   0.2082066), wk =   0.0099502
        k(  169) = (   0.1350000   0.0779423   0.2204541), wk =   0.0099502
        k(  170) = (   0.1425000   0.0822724   0.2327015), wk =   0.0099502
        k(  171) = (   0.1500000   0.0866025   0.2449490), wk =   0.0099502
        k(  172) = (   0.1575000   0.0909327   0.2571964), wk =   0.0099502
        k(  173) = (   0.1650000   0.0952628   0.2694439), wk =   0.0099502
        k(  174) = (   0.1725000   0.0995929   0.2816913), wk =   0.0099502
        k(  175) = (   0.1800000   0.1039230   0.2939388), wk =   0.0099502
        k(  176) = (   0.1875000   0.1082532   0.3061862), wk =   0.0099502
        k(  177) = (   0.1950000   0.1125833   0.3184337), wk =   0.0099502
        k(  178) = (   0.2025000   0.1169134   0.3306811), wk =   0.0099502
        k(  179) = (   0.2100000   0.1212436   0.3429286), wk =   0.0099502
        k(  180) = (   0.2175000   0.1255737   0.3551760), wk =   0.0099502
        k(  181) = (   0.2250000   0.1299038   0.3674235), wk =   0.0099502
        k(  182) = (   0.2325000   0.1342339   0.3796709), wk =   0.0099502
        k(  183) = (   0.2400000   0.1385641   0.3919184), wk =   0.0099502
        k(  184) = (   0.2475000   0.1428942   0.4041658), wk =   0.0099502
        k(  185) = (   0.2550000   0.1472243   0.4164133), wk =   0.0099502
        k(  186) = (   0.2625000   0.1515544   0.4286607), wk =   0.0099502
        k(  187) = (   0.2700000   0.1558846   0.4409082), wk =   0.0099502
        k(  188) = (   0.2775000   0.1602147   0.4531556), wk =   0.0099502
        k(  189) = (   0.2850000   0.1645448   0.4654031), wk =   0.0099502
        k(  190) = (   0.2925000   0.1688750   0.4776505), wk =   0.0099502
        k(  191) = (   0.3000000   0.1732051   0.4898979), wk =   0.0099502
        k(  192) = (   0.3075000   0.1775352   0.5021454), wk =   0.0099502
        k(  193) = (   0.3150000   0.1818653   0.5143928), wk =   0.0099502
        k(  194) = (   0.3225000   0.1861955   0.5266403), wk =   0.0099502
        k(  195) = (   0.3300000   0.1905256   0.5388877), wk =   0.0099502
        k(  196) = (   0.3375000   0.1948557   0.5511352), wk =   0.0099502
        k(  197) = (   0.3450000   0.1991858   0.5633826), wk =   0.0099502
        k(  198) = (   0.3525000   0.2035160   0.5756301), wk =   0.0099502
        k(  199) = (   0.3600000   0.2078461   0.5878775), wk =   0.0099502
        k(  200) = (   0.3675000   0.2121762   0.6001250), wk =   0.0099502
        k(  201) = (   0.3750000   0.2165064   0.6123724), wk =   0.0099502

                       cryst. coord.
        k(    1) = (   0.5000000   0.2500000   0.7500000), wk =   0.0099502
        k(    2) = (   0.5000000   0.2550000   0.7450000), wk =   0.0099502
        k(    3) = (   0.5000000   0.2600000   0.7400000), wk =   0.0099502
        k(    4) = (   0.5000000   0.2650000   0.7350000), wk =   0.0099502
        k(    5) = (   0.5000000   0.2700000   0.7300000), wk =   0.0099502
        k(    6) = (   0.5000000   0.2750000   0.7250000), wk =   0.0099502
        k(    7) = (   0.5000000   0.2800000   0.7200000), wk =   0.0099502
        k(    8) = (   0.5000000   0.2850000   0.7150000), wk =   0.0099502
        k(    9) = (   0.5000000   0.2900000   0.7100000), wk =   0.0099502
        k(   10) = (   0.5000000   0.2950000   0.7050000), wk =   0.0099502
        k(   11) = (   0.5000000   0.3000000   0.7000000), wk =   0.0099502
        k(   12) = (   0.5000000   0.3050000   0.6950000), wk =   0.0099502
        k(   13) = (   0.5000000   0.3100000   0.6900000), wk =   0.0099502
        k(   14) = (   0.5000000   0.3150000   0.6850000), wk =   0.0099502
        k(   15) = (   0.5000000   0.3200000   0.6800000), wk =   0.0099502
        k(   16) = (   0.5000000   0.3250000   0.6750000), wk =   0.0099502
        k(   17) = (   0.5000000   0.3300000   0.6700000), wk =   0.0099502
        k(   18) = (   0.5000000   0.3350000   0.6650000), wk =   0.0099502
        k(   19) = (   0.5000000   0.3400000   0.6600000), wk =   0.0099502
        k(   20) = (   0.5000000   0.3450000   0.6550000), wk =   0.0099502
        k(   21) = (   0.5000000   0.3500000   0.6500000), wk =   0.0099502
        k(   22) = (   0.5000000   0.3550000   0.6450000), wk =   0.0099502
        k(   23) = (   0.5000000   0.3600000   0.6400000), wk =   0.0099502
        k(   24) = (   0.5000000   0.3650000   0.6350000), wk =   0.0099502
        k(   25) = (   0.5000000   0.3700000   0.6300000), wk =   0.0099502
        k(   26) = (   0.5000000   0.3750000   0.6250000), wk =   0.0099502
        k(   27) = (   0.5000000   0.3800000   0.6200000), wk =   0.0099502
        k(   28) = (   0.5000000   0.3850000   0.6150000), wk =   0.0099502
        k(   29) = (   0.5000000   0.3900000   0.6100000), wk =   0.0099502
        k(   30) = (   0.5000000   0.3950000   0.6050000), wk =   0.0099502
        k(   31) = (   0.5000000   0.4000000   0.6000000), wk =   0.0099502
        k(   32) = (   0.5000000   0.4050000   0.5950000), wk =   0.0099502
        k(   33) = (   0.5000000   0.4100000   0.5900000), wk =   0.0099502
        k(   34) = (   0.5000000   0.4150000   0.5850000), wk =   0.0099502
        k(   35) = (   0.5000000   0.4200000   0.5800000), wk =   0.0099502
        k(   36) = (   0.5000000   0.4250000   0.5750000), wk =   0.0099502
        k(   37) = (   0.5000000   0.4300000   0.5700000), wk =   0.0099502
        k(   38) = (   0.5000000   0.4350000   0.5650000), wk =   0.0099502
        k(   39) = (   0.5000000   0.4400000   0.5600000), wk =   0.0099502
        k(   40) = (   0.5000000   0.4450000   0.5550000), wk =   0.0099502
        k(   41) = (   0.5000000   0.4500000   0.5500000), wk =   0.0099502
        k(   42) = (   0.5000000   0.4550000   0.5450000), wk =   0.0099502
        k(   43) = (   0.5000000   0.4600000   0.5400000), wk =   0.0099502
        k(   44) = (   0.5000000   0.4650000   0.5350000), wk =   0.0099502
        k(   45) = (   0.5000000   0.4700000   0.5300000), wk =   0.0099502
        k(   46) = (   0.5000000   0.4750000   0.5250000), wk =   0.0099502
        k(   47) = (   0.5000000   0.4800000   0.5200000), wk =   0.0099502
        k(   48) = (   0.5000000   0.4850000   0.5150000), wk =   0.0099502
        k(   49) = (   0.5000000   0.4900000   0.5100000), wk =   0.0099502
        k(   50) = (   0.5000000   0.4950000   0.5050000), wk =   0.0099502
        k(   51) = (   0.5000000   0.5000000   0.5000000), wk =   0.0099502
        k(   52) = (   0.5041667   0.4916667   0.5041667), wk =   0.0099502
        k(   53) = (   0.5083333   0.4833333   0.5083333), wk =   0.0099502
        k(   54) = (   0.5125000   0.4750000   0.5125000), wk =   0.0099502
        k(   55) = (   0.5166667   0.4666667   0.5166667), wk =   0.0099502
        k(   56) = (   0.5208333   0.4583333   0.5208333), wk =   0.0099502
        k(   57) = (   0.5250000   0.4500000   0.5250000), wk =   0.0099502
        k(   58) = (   0.5291667   0.4416667   0.5291667), wk =   0.0099502
        k(   59) = (   0.5333333   0.4333333   0.5333333), wk =   0.0099502
        k(   60) = (   0.5375000   0.4250000   0.5375000), wk =   0.0099502
        k(   61) = (   0.5416667   0.4166667   0.5416667), wk =   0.0099502
        k(   62) = (   0.5458333   0.4083333   0.5458333), wk =   0.0099502
        k(   63) = (   0.5500000   0.4000000   0.5500000), wk =   0.0099502
        k(   64) = (   0.5541667   0.3916667   0.5541667), wk =   0.0099502
        k(   65) = (   0.5583333   0.3833333   0.5583333), wk =   0.0099502
        k(   66) = (   0.5625000   0.3750000   0.5625000), wk =   0.0099502
        k(   67) = (   0.5666667   0.3666667   0.5666667), wk =   0.0099502
        k(   68) = (   0.5708333   0.3583333   0.5708333), wk =   0.0099502
        k(   69) = (   0.5750000   0.3500000   0.5750000), wk =   0.0099502
        k(   70) = (   0.5791667   0.3416667   0.5791667), wk =   0.0099502
        k(   71) = (   0.5833333   0.3333333   0.5833333), wk =   0.0099502
        k(   72) = (   0.5875000   0.3250000   0.5875000), wk =   0.0099502
        k(   73) = (   0.5916667   0.3166667   0.5916667), wk =   0.0099502
        k(   74) = (   0.5958333   0.3083333   0.5958333), wk =   0.0099502
        k(   75) = (   0.6000000   0.3000000   0.6000000), wk =   0.0099502
        k(   76) = (   0.6041667   0.2916667   0.6041667), wk =   0.0099502
        k(   77) = (   0.6083333   0.2833333   0.6083333), wk =   0.0099502
        k(   78) = (   0.6125000   0.2750000   0.6125000), wk =   0.0099502
        k(   79) = (   0.6166667   0.2666667   0.6166667), wk =   0.0099502
        k(   80) = (   0.6208333   0.2583333   0.6208333), wk =   0.0099502
        k(   81) = (   0.6250000   0.2500000   0.6250000), wk =   0.0099502
        k(   82) = (   0.6187500   0.2375000   0.6187500), wk =   0.0099502
        k(   83) = (   0.6125000   0.2250000   0.6125000), wk =   0.0099502
        k(   84) = (   0.6062500   0.2125000   0.6062500), wk =   0.0099502
        k(   85) = (   0.6000000   0.2000000   0.6000000), wk =   0.0099502
        k(   86) = (   0.5937500   0.1875000   0.5937500), wk =   0.0099502
        k(   87) = (   0.5875000   0.1750000   0.5875000), wk =   0.0099502
        k(   88) = (   0.5812500   0.1625000   0.5812500), wk =   0.0099502
        k(   89) = (   0.5750000   0.1500000   0.5750000), wk =   0.0099502
        k(   90) = (   0.5687500   0.1375000   0.5687500), wk =   0.0099502
        k(   91) = (   0.5625000   0.1250000   0.5625000), wk =   0.0099502
        k(   92) = (   0.5562500   0.1125000   0.5562500), wk =   0.0099502
        k(   93) = (   0.5500000   0.1000000   0.5500000), wk =   0.0099502
        k(   94) = (   0.5437500   0.0875000   0.5437500), wk =   0.0099502
        k(   95) = (   0.5375000   0.0750000   0.5375000), wk =   0.0099502
        k(   96) = (   0.5312500   0.0625000   0.5312500), wk =   0.0099502
        k(   97) = (   0.5250000   0.0500000   0.5250000), wk =   0.0099502
        k(   98) = (   0.5187500   0.0375000   0.5187500), wk =   0.0099502
        k(   99) = (   0.5125000   0.0250000   0.5125000), wk =   0.0099502
        k(  100) = (   0.5062500   0.0125000   0.5062500), wk =   0.0099502
        k(  101) = (   0.5000000   0.0000000   0.5000000), wk =   0.0099502
        k(  102) = (   0.4900000  -0.0000000   0.4900000), wk =   0.0099502
        k(  103) = (   0.4800000  -0.0000000   0.4800000), wk =   0.0099502
        k(  104) = (   0.4700000  -0.0000000   0.4700000), wk =   0.0099502
        k(  105) = (   0.4600000  -0.0000000   0.4600000), wk =   0.0099502
        k(  106) = (   0.4500000   0.0000000   0.4500000), wk =   0.0099502
        k(  107) = (   0.4400000  -0.0000000   0.4400000), wk =   0.0099502
        k(  108) = (   0.4300000   0.0000000   0.4300000), wk =   0.0099502
        k(  109) = (   0.4200000  -0.0000000   0.4200000), wk =   0.0099502
        k(  110) = (   0.4100000  -0.0000000   0.4100000), wk =   0.0099502
        k(  111) = (   0.4000000  -0.0000000   0.4000000), wk =   0.0099502
        k(  112) = (   0.3900000   0.0000000   0.3900000), wk =   0.0099502
        k(  113) = (   0.3800000  -0.0000000   0.3800000), wk =   0.0099502
        k(  114) = (   0.3700000   0.0000000   0.3700000), wk =   0.0099502
        k(  115) = (   0.3600000  -0.0000000   0.3600000), wk =   0.0099502
        k(  116) = (   0.3500000  -0.0000000   0.3500000), wk =   0.0099502
        k(  117) = (   0.3400000  -0.0000000   0.3400000), wk =   0.0099502
        k(  118) = (   0.3300000   0.0000000   0.3300000), wk =   0.0099502
        k(  119) = (   0.3200000  -0.0000000   0.3200000), wk =   0.0099502
        k(  120) = (   0.3100000  -0.0000000   0.3100000), wk =   0.0099502
        k(  121) = (   0.3000000  -0.0000000   0.3000000), wk =   0.0099502
        k(  122) = (   0.2900000   0.0000000   0.2900000), wk =   0.0099502
        k(  123) = (   0.2800000  -0.0000000   0.2800000), wk =   0.0099502
        k(  124) = (   0.2700000   0.0000000   0.2700000), wk =   0.0099502
        k(  125) = (   0.2600000  -0.0000000   0.2600000), wk =   0.0099502
        k(  126) = (   0.2500000   0.0000000   0.2500000), wk =   0.0099502
        k(  127) = (   0.2400000  -0.0000000   0.2400000), wk =   0.0099502
        k(  128) = (   0.2300000  -0.0000000   0.2300000), wk =   0.0099502
        k(  129) = (   0.2200000   0.0000000   0.2200000), wk =   0.0099502
        k(  130) = (   0.2100000  -0.0000000   0.2100000), wk =   0.0099502
        k(  131) = (   0.2000000  -0.0000000   0.2000000), wk =   0.0099502
        k(  132) = (   0.1900000  -0.0000000   0.1900000), wk =   0.0099502
        k(  133) = (   0.1800000  -0.0000000   0.1800000), wk =   0.0099502
        k(  134) = (   0.1700000  -0.0000000   0.1700000), wk =   0.0099502
        k(  135) = (   0.1600000  -0.0000000   0.1600000), wk =   0.0099502
        k(  136) = (   0.1500000  -0.0000000   0.1500000), wk =   0.0099502
        k(  137) = (   0.1400000  -0.0000000   0.1400000), wk =   0.0099502
        k(  138) = (   0.1300000  -0.0000000   0.1300000), wk =   0.0099502
        k(  139) = (   0.1200000  -0.0000000   0.1200000), wk =   0.0099502
        k(  140) = (   0.1100000   0.0000000   0.1100000), wk =   0.0099502
        k(  141) = (   0.1000000  -0.0000000   0.1000000), wk =   0.0099502
        k(  142) = (   0.0900000   0.0000000   0.0900000), wk =   0.0099502
        k(  143) = (   0.0800000  -0.0000000   0.0800000), wk =   0.0099502
        k(  144) = (   0.0700000  -0.0000000   0.0700000), wk =   0.0099502
        k(  145) = (   0.0600000  -0.0000000   0.0600000), wk =   0.0099502
        k(  146) = (   0.0500000  -0.0000000   0.0500000), wk =   0.0099502
        k(  147) = (   0.0400000  -0.0000000   0.0400000), wk =   0.0099502
        k(  148) = (   0.0300000  -0.0000000   0.0300000), wk =   0.0099502
        k(  149) = (   0.0200000  -0.0000000   0.0200000), wk =   0.0099502
        k(  150) = (   0.0100000  -0.0000000   0.0100000), wk =   0.0099502
        k(  151) = (   0.0000000   0.0000000   0.0000000), wk =   0.0099502
        k(  152) = (   0.0075000   0.0075000   0.0150000), wk =   0.0099502
        k(  153) = (   0.0150000   0.0150000   0.0300000), wk =   0.0099502
        k(  154) = (   0.0225000   0.0225000   0.0450000), wk =   0.0099502
        k(  155) = (   0.0300000   0.0300000   0.0600000), wk =   0.0099502
        k(  156) = (   0.0375000   0.0375000   0.0750000), wk =   0.0099502
        k(  157) = (   0.0450000   0.0450000   0.0900000), wk =   0.0099502
        k(  158) = (   0.0525000   0.0525000   0.1050000), wk =   0.0099502
        k(  159) = (   0.0600000   0.0600000   0.1200000), wk =   0.0099502
        k(  160) = (   0.0675000   0.0675000   0.1350000), wk =   0.0099502
        k(  161) = (   0.0750000   0.0750000   0.1500000), wk =   0.0099502
        k(  162) = (   0.0825000   0.0825000   0.1650000), wk =   0.0099502
        k(  163) = (   0.0900000   0.0900000   0.1800000), wk =   0.0099502
        k(  164) = (   0.0975000   0.0975000   0.1950000), wk =   0.0099502
        k(  165) = (   0.1050000   0.1050000   0.2100000), wk =   0.0099502
        k(  166) = (   0.1125000   0.1125000   0.2250000), wk =   0.0099502
        k(  167) = (   0.1200000   0.1200000   0.2400000), wk =   0.0099502
        k(  168) = (   0.1275000   0.1275000   0.2550000), wk =   0.0099502
        k(  169) = (   0.1350000   0.1350000   0.2700000), wk =   0.0099502
        k(  170) = (   0.1425000   0.1425000   0.2850000), wk =   0.0099502
        k(  171) = (   0.1500000   0.1500000   0.3000000), wk =   0.0099502
        k(  172) = (   0.1575000   0.1575000   0.3150000), wk =   0.0099502
        k(  173) = (   0.1650000   0.1650000   0.3300000), wk =   0.0099502
        k(  174) = (   0.1725000   0.1725000   0.3450000), wk =   0.0099502
        k(  175) = (   0.1800000   0.1800000   0.3600000), wk =   0.0099502
        k(  176) = (   0.1875000   0.1875000   0.3750000), wk =   0.0099502
        k(  177) = (   0.1950000   0.1950000   0.3900000), wk =   0.0099502
        k(  178) = (   0.2025000   0.2025000   0.4050000), wk =   0.0099502
        k(  179) = (   0.2100000   0.2100000   0.4200000), wk =   0.0099502
        k(  180) = (   0.2175000   0.2175000   0.4350000), wk =   0.0099502
        k(  181) = (   0.2250000   0.2250000   0.4500000), wk =   0.0099502
        k(  182) = (   0.2325000   0.2325000   0.4650000), wk =   0.0099502
        k(  183) = (   0.2400000   0.2400000   0.4800000), wk =   0.0099502
        k(  184) = (   0.2475000   0.2475000   0.4950000), wk =   0.0099502
        k(  185) = (   0.2550000   0.2550000   0.5100000), wk =   0.0099502
        k(  186) = (   0.2625000   0.2625000   0.5250000), wk =   0.0099502
        k(  187) = (   0.2700000   0.2700000   0.5400000), wk =   0.0099502
        k(  188) = (   0.2775000   0.2775000   0.5550000), wk =   0.0099502
        k(  189) = (   0.2850000   0.2850000   0.5700000), wk =   0.0099502
        k(  190) = (   0.2925000   0.2925000   0.5850000), wk =   0.0099502
        k(  191) = (   0.3000000   0.3000000   0.6000000), wk =   0.0099502
        k(  192) = (   0.3075000   0.3075000   0.6150000), wk =   0.0099502
        k(  193) = (   0.3150000   0.3150000   0.6300000), wk =   0.0099502
        k(  194) = (   0.3225000   0.3225000   0.6450000), wk =   0.0099502
        k(  195) = (   0.3300000   0.3300000   0.6600000), wk =   0.0099502
        k(  196) = (   0.3375000   0.3375000   0.6750000), wk =   0.0099502
        k(  197) = (   0.3450000   0.3450000   0.6900000), wk =   0.0099502
        k(  198) = (   0.3525000   0.3525000   0.7050000), wk =   0.0099502
        k(  199) = (   0.3600000   0.3600000   0.7200000), wk =   0.0099502
        k(  200) = (   0.3675000   0.3675000   0.7350000), wk =   0.0099502
        k(  201) = (   0.3750000   0.3750000   0.7500000), wk =   0.0099502

     Dense  grid:    35629 G-vectors     FFT dimensions: (  45,  45,  45)

     Smooth grid:    12627 G-vectors     FFT dimensions: (  36,  36,  36)

     Dynamical RAM for                 wfc:       0.18 MB

     Dynamical RAM for     wfc (w. buffer):       0.18 MB

     Dynamical RAM for           str. fact:       0.27 MB

     Dynamical RAM for           local pot:       0.00 MB

     Dynamical RAM for          nlocal pot:       0.19 MB

     Dynamical RAM for                qrad:       2.87 MB

     Dynamical RAM for          rho,v,vnew:       0.96 MB

     Dynamical RAM for           G-vectors:       0.53 MB

     Dynamical RAM for          h,s,v(r/c):       0.04 MB

     Dynamical RAM for          <psi|beta>:       0.01 MB

     Dynamical RAM for                 psi:       0.36 MB

     Dynamical RAM for                hpsi:       0.36 MB

     Dynamical RAM for                spsi:       0.36 MB

     Dynamical RAM for      wfcinit/wfcrot:       0.38 MB

     Dynamical RAM for           addusdens:      25.42 MB

     Estimated static dynamical RAM per process >       6.34 MB

     Estimated max dynamical RAM per process >      31.77 MB

     Estimated total dynamical RAM >     127.07 MB

     The potential is recalculated from file :
     ./out/gete.save/charge-density

     Starting wfcs are   13 randomized atomic wfcs +   17 random wfcs

     Band Structure Calculation
     Davidson diagonalization with overlap

     Computing kpt #:     1  of   201
     total cpu time spent up to now is        5.5 secs

     Computing kpt #:     2  of   201
     total cpu time spent up to now is        5.8 secs

     Computing kpt #:     3  of   201
     total cpu time spent up to now is        6.2 secs

     Computing kpt #:     4  of   201
     total cpu time spent up to now is        6.5 secs

     Computing kpt #:     5  of   201
     total cpu time spent up to now is        6.8 secs

     Computing kpt #:     6  of   201
     total cpu time spent up to now is        7.1 secs

     Computing kpt #:     7  of   201
     total cpu time spent up to now is        7.4 secs

     Computing kpt #:     8  of   201
     total cpu time spent up to now is        7.8 secs

     Computing kpt #:     9  of   201
     total cpu time spent up to now is        8.1 secs

     Computing kpt #:    10  of   201
     total cpu time spent up to now is        8.4 secs

     Computing kpt #:    11  of   201
     total cpu time spent up to now is        8.7 secs

     Computing kpt #:    12  of   201
     total cpu time spent up to now is        9.1 secs

     Computing kpt #:    13  of   201
     total cpu time spent up to now is        9.4 secs

     Computing kpt #:    14  of   201
     total cpu time spent up to now is        9.7 secs

     Computing kpt #:    15  of   201
     total cpu time spent up to now is       10.1 secs

     Computing kpt #:    16  of   201
     total cpu time spent up to now is       10.4 secs

     Computing kpt #:    17  of   201
     total cpu time spent up to now is       10.7 secs

     Computing kpt #:    18  of   201
     total cpu time spent up to now is       11.0 secs

     Computing kpt #:    19  of   201
     total cpu time spent up to now is       11.3 secs

     Computing kpt #:    20  of   201
     total cpu time spent up to now is       11.6 secs

     Computing kpt #:    21  of   201
     total cpu time spent up to now is       11.9 secs

     Computing kpt #:    22  of   201
     total cpu time spent up to now is       12.3 secs

     Computing kpt #:    23  of   201
     total cpu time spent up to now is       12.6 secs

     Computing kpt #:    24  of   201
     total cpu time spent up to now is       12.9 secs

     Computing kpt #:    25  of   201
     total cpu time spent up to now is       13.2 secs

     Computing kpt #:    26  of   201
     total cpu time spent up to now is       13.5 secs

     Computing kpt #:    27  of   201
     total cpu time spent up to now is       13.8 secs

     Computing kpt #:    28  of   201
     total cpu time spent up to now is       14.1 secs

     Computing kpt #:    29  of   201
     total cpu time spent up to now is       14.4 secs

     Computing kpt #:    30  of   201
     total cpu time spent up to now is       14.7 secs

     Computing kpt #:    31  of   201
     total cpu time spent up to now is       15.0 secs

     Computing kpt #:    32  of   201
     total cpu time spent up to now is       15.4 secs

     Computing kpt #:    33  of   201
     total cpu time spent up to now is       15.7 secs

     Computing kpt #:    34  of   201
     total cpu time spent up to now is       16.0 secs

     Computing kpt #:    35  of   201
     total cpu time spent up to now is       16.3 secs

     Computing kpt #:    36  of   201
     total cpu time spent up to now is       16.6 secs

     Computing kpt #:    37  of   201
     total cpu time spent up to now is       17.0 secs

     Computing kpt #:    38  of   201
     total cpu time spent up to now is       17.3 secs

     Computing kpt #:    39  of   201
     total cpu time spent up to now is       17.6 secs

     Computing kpt #:    40  of   201
     total cpu time spent up to now is       17.9 secs

     Computing kpt #:    41  of   201
     total cpu time spent up to now is       18.2 secs

     Computing kpt #:    42  of   201
     total cpu time spent up to now is       18.5 secs

     Computing kpt #:    43  of   201
     total cpu time spent up to now is       18.9 secs

     Computing kpt #:    44  of   201
     total cpu time spent up to now is       19.2 secs

     Computing kpt #:    45  of   201
     total cpu time spent up to now is       19.5 secs

     Computing kpt #:    46  of   201
     total cpu time spent up to now is       19.8 secs

     Computing kpt #:    47  of   201
     total cpu time spent up to now is       20.2 secs

     Computing kpt #:    48  of   201
     total cpu time spent up to now is       20.6 secs

     Computing kpt #:    49  of   201
     total cpu time spent up to now is       20.9 secs

     Computing kpt #:    50  of   201
     c_bands:  1 eigenvalues not converged
     total cpu time spent up to now is       21.3 secs

     Computing kpt #:    51  of   201
     c_bands:  1 eigenvalues not converged
     total cpu time spent up to now is       21.7 secs

     Computing kpt #:    52  of   201
     c_bands:  1 eigenvalues not converged
     total cpu time spent up to now is       22.1 secs

     Computing kpt #:    53  of   201
     total cpu time spent up to now is       22.5 secs

     Computing kpt #:    54  of   201
     total cpu time spent up to now is       22.9 secs

     Computing kpt #:    55  of   201
     total cpu time spent up to now is       23.2 secs

     Computing kpt #:    56  of   201
     total cpu time spent up to now is       23.5 secs

     Computing kpt #:    57  of   201
     total cpu time spent up to now is       23.8 secs

     Computing kpt #:    58  of   201
     total cpu time spent up to now is       24.1 secs

     Computing kpt #:    59  of   201
     total cpu time spent up to now is       24.4 secs

     Computing kpt #:    60  of   201
     total cpu time spent up to now is       24.7 secs

     Computing kpt #:    61  of   201
     total cpu time spent up to now is       25.0 secs

     Computing kpt #:    62  of   201
     total cpu time spent up to now is       25.3 secs

     Computing kpt #:    63  of   201
     total cpu time spent up to now is       25.6 secs

     Computing kpt #:    64  of   201
     total cpu time spent up to now is       25.9 secs

     Computing kpt #:    65  of   201
     total cpu time spent up to now is       26.2 secs

     Computing kpt #:    66  of   201
     total cpu time spent up to now is       26.5 secs

     Computing kpt #:    67  of   201
     total cpu time spent up to now is       26.8 secs

     Computing kpt #:    68  of   201
     total cpu time spent up to now is       27.1 secs

     Computing kpt #:    69  of   201
     total cpu time spent up to now is       27.3 secs

     Computing kpt #:    70  of   201
     total cpu time spent up to now is       27.6 secs

     Computing kpt #:    71  of   201
     total cpu time spent up to now is       27.9 secs

     Computing kpt #:    72  of   201
     total cpu time spent up to now is       28.2 secs

     Computing kpt #:    73  of   201
     total cpu time spent up to now is       28.4 secs

     Computing kpt #:    74  of   201
     total cpu time spent up to now is       28.7 secs

     Computing kpt #:    75  of   201
     total cpu time spent up to now is       28.9 secs

     Computing kpt #:    76  of   201
     total cpu time spent up to now is       29.2 secs

     Computing kpt #:    77  of   201
     total cpu time spent up to now is       29.5 secs

     Computing kpt #:    78  of   201
     total cpu time spent up to now is       29.8 secs

     Computing kpt #:    79  of   201
     total cpu time spent up to now is       30.1 secs

     Computing kpt #:    80  of   201
     total cpu time spent up to now is       30.4 secs

     Computing kpt #:    81  of   201
     total cpu time spent up to now is       30.6 secs

     Computing kpt #:    82  of   201
     total cpu time spent up to now is       30.9 secs

     Computing kpt #:    83  of   201
     total cpu time spent up to now is       31.2 secs

     Computing kpt #:    84  of   201
     total cpu time spent up to now is       31.4 secs

     Computing kpt #:    85  of   201
     total cpu time spent up to now is       31.7 secs

     Computing kpt #:    86  of   201
     total cpu time spent up to now is       31.9 secs

     Computing kpt #:    87  of   201
     total cpu time spent up to now is       32.2 secs

     Computing kpt #:    88  of   201
     total cpu time spent up to now is       32.5 secs

     Computing kpt #:    89  of   201
     total cpu time spent up to now is       32.8 secs

     Computing kpt #:    90  of   201
     total cpu time spent up to now is       33.1 secs

     Computing kpt #:    91  of   201
     total cpu time spent up to now is       33.4 secs

     Computing kpt #:    92  of   201
     c_bands:  1 eigenvalues not converged
     total cpu time spent up to now is       33.9 secs

     Computing kpt #:    93  of   201
     total cpu time spent up to now is       34.2 secs

     Computing kpt #:    94  of   201
     total cpu time spent up to now is       34.4 secs

     Computing kpt #:    95  of   201
     total cpu time spent up to now is       34.7 secs

     Computing kpt #:    96  of   201
     total cpu time spent up to now is       35.0 secs

     Computing kpt #:    97  of   201
     total cpu time spent up to now is       35.3 secs

     Computing kpt #:    98  of   201
     total cpu time spent up to now is       35.6 secs

     Computing kpt #:    99  of   201
     total cpu time spent up to now is       35.8 secs

     Computing kpt #:   100  of   201
     total cpu time spent up to now is       36.1 secs

     Computing kpt #:   101  of   201
     total cpu time spent up to now is       36.4 secs

     Computing kpt #:   102  of   201
     total cpu time spent up to now is       36.7 secs

     Computing kpt #:   103  of   201
     total cpu time spent up to now is       37.0 secs

     Computing kpt #:   104  of   201
     total cpu time spent up to now is       37.3 secs

     Computing kpt #:   105  of   201
     total cpu time spent up to now is       37.6 secs

     Computing kpt #:   106  of   201
     total cpu time spent up to now is       38.0 secs

     Computing kpt #:   107  of   201
     total cpu time spent up to now is       38.2 secs

     Computing kpt #:   108  of   201
     total cpu time spent up to now is       38.5 secs

     Computing kpt #:   109  of   201
     total cpu time spent up to now is       38.8 secs

     Computing kpt #:   110  of   201
     total cpu time spent up to now is       39.1 secs

     Computing kpt #:   111  of   201
     total cpu time spent up to now is       39.4 secs

     Computing kpt #:   112  of   201
     total cpu time spent up to now is       39.7 secs

     Computing kpt #:   113  of   201
     total cpu time spent up to now is       39.9 secs

     Computing kpt #:   114  of   201
     total cpu time spent up to now is       40.3 secs

     Computing kpt #:   115  of   201
     total cpu time spent up to now is       40.5 secs

     Computing kpt #:   116  of   201
     total cpu time spent up to now is       40.8 secs

     Computing kpt #:   117  of   201
     total cpu time spent up to now is       41.3 secs

     Computing kpt #:   118  of   201
     total cpu time spent up to now is       41.6 secs

     Computing kpt #:   119  of   201
     total cpu time spent up to now is       41.8 secs

     Computing kpt #:   120  of   201
     total cpu time spent up to now is       42.1 secs

     Computing kpt #:   121  of   201
     total cpu time spent up to now is       42.3 secs

     Computing kpt #:   122  of   201
     total cpu time spent up to now is       42.6 secs

     Computing kpt #:   123  of   201
     total cpu time spent up to now is       42.8 secs

     Computing kpt #:   124  of   201
     total cpu time spent up to now is       43.1 secs

     Computing kpt #:   125  of   201
     total cpu time spent up to now is       43.3 secs

     Computing kpt #:   126  of   201
     total cpu time spent up to now is       43.5 secs

     Computing kpt #:   127  of   201
     total cpu time spent up to now is       43.8 secs

     Computing kpt #:   128  of   201
     total cpu time spent up to now is       44.1 secs

     Computing kpt #:   129  of   201
     total cpu time spent up to now is       44.3 secs

     Computing kpt #:   130  of   201
     total cpu time spent up to now is       44.6 secs

     Computing kpt #:   131  of   201
     total cpu time spent up to now is       44.9 secs

     Computing kpt #:   132  of   201
     total cpu time spent up to now is       45.2 secs

     Computing kpt #:   133  of   201
     total cpu time spent up to now is       45.6 secs

     Computing kpt #:   134  of   201
     total cpu time spent up to now is       45.9 secs

     Computing kpt #:   135  of   201
     c_bands:  1 eigenvalues not converged
     total cpu time spent up to now is       46.3 secs

     Computing kpt #:   136  of   201
     total cpu time spent up to now is       46.6 secs

     Computing kpt #:   137  of   201
     total cpu time spent up to now is       47.0 secs

     Computing kpt #:   138  of   201
     total cpu time spent up to now is       47.3 secs

     Computing kpt #:   139  of   201
     total cpu time spent up to now is       47.6 secs

     Computing kpt #:   140  of   201
     total cpu time spent up to now is       48.0 secs

     Computing kpt #:   141  of   201
     total cpu time spent up to now is       48.3 secs

     Computing kpt #:   142  of   201
     total cpu time spent up to now is       48.5 secs

     Computing kpt #:   143  of   201
     total cpu time spent up to now is       48.8 secs

     Computing kpt #:   144  of   201
     total cpu time spent up to now is       49.1 secs

     Computing kpt #:   145  of   201
     total cpu time spent up to now is       49.4 secs

     Computing kpt #:   146  of   201
     total cpu time spent up to now is       49.7 secs

     Computing kpt #:   147  of   201
     total cpu time spent up to now is       49.9 secs

     Computing kpt #:   148  of   201
     total cpu time spent up to now is       50.2 secs

     Computing kpt #:   149  of   201
     total cpu time spent up to now is       50.5 secs

     Computing kpt #:   150  of   201
     total cpu time spent up to now is       50.8 secs

     Computing kpt #:   151  of   201
     total cpu time spent up to now is       51.1 secs

     Computing kpt #:   152  of   201
     total cpu time spent up to now is       51.5 secs

     Computing kpt #:   153  of   201
     total cpu time spent up to now is       51.7 secs

     Computing kpt #:   154  of   201
     total cpu time spent up to now is       52.0 secs

     Computing kpt #:   155  of   201
     total cpu time spent up to now is       52.3 secs

     Computing kpt #:   156  of   201
     total cpu time spent up to now is       52.6 secs

     Computing kpt #:   157  of   201
     total cpu time spent up to now is       52.9 secs

     Computing kpt #:   158  of   201
     total cpu time spent up to now is       53.2 secs

     Computing kpt #:   159  of   201
     total cpu time spent up to now is       53.5 secs

     Computing kpt #:   160  of   201
     total cpu time spent up to now is       53.8 secs

     Computing kpt #:   161  of   201
     total cpu time spent up to now is       54.0 secs

     Computing kpt #:   162  of   201
     total cpu time spent up to now is       54.3 secs

     Computing kpt #:   163  of   201
     total cpu time spent up to now is       54.6 secs

     Computing kpt #:   164  of   201
     total cpu time spent up to now is       54.9 secs

     Computing kpt #:   165  of   201
     total cpu time spent up to now is       55.2 secs

     Computing kpt #:   166  of   201
     total cpu time spent up to now is       55.5 secs

     Computing kpt #:   167  of   201
     total cpu time spent up to now is       55.8 secs

     Computing kpt #:   168  of   201
     total cpu time spent up to now is       56.1 secs

     Computing kpt #:   169  of   201
     total cpu time spent up to now is       56.4 secs

     Computing kpt #:   170  of   201
     total cpu time spent up to now is       56.7 secs

     Computing kpt #:   171  of   201
     total cpu time spent up to now is       57.0 secs

     Computing kpt #:   172  of   201
     total cpu time spent up to now is       57.3 secs

     Computing kpt #:   173  of   201
     total cpu time spent up to now is       57.6 secs

     Computing kpt #:   174  of   201
     total cpu time spent up to now is       57.8 secs

     Computing kpt #:   175  of   201
     total cpu time spent up to now is       58.1 secs

     Computing kpt #:   176  of   201
     total cpu time spent up to now is       58.3 secs

     Computing kpt #:   177  of   201
     total cpu time spent up to now is       58.6 secs

     Computing kpt #:   178  of   201
     total cpu time spent up to now is       58.9 secs

     Computing kpt #:   179  of   201
     total cpu time spent up to now is       59.2 secs

     Computing kpt #:   180  of   201
     total cpu time spent up to now is       59.5 secs

     Computing kpt #:   181  of   201
     total cpu time spent up to now is       59.8 secs

     Computing kpt #:   182  of   201
     total cpu time spent up to now is       60.0 secs

     Computing kpt #:   183  of   201
     total cpu time spent up to now is       60.3 secs

     Computing kpt #:   184  of   201
     total cpu time spent up to now is       60.6 secs

     Computing kpt #:   185  of   201
     total cpu time spent up to now is       60.9 secs

     Computing kpt #:   186  of   201
     total cpu time spent up to now is       61.2 secs

     Computing kpt #:   187  of   201
     total cpu time spent up to now is       61.5 secs

     Computing kpt #:   188  of   201
     total cpu time spent up to now is       61.7 secs

     Computing kpt #:   189  of   201
     total cpu time spent up to now is       62.0 secs

     Computing kpt #:   190  of   201
     total cpu time spent up to now is       62.3 secs

     Computing kpt #:   191  of   201
     total cpu time spent up to now is       62.5 secs

     Computing kpt #:   192  of   201
     total cpu time spent up to now is       62.8 secs

     Computing kpt #:   193  of   201
     total cpu time spent up to now is       63.1 secs

     Computing kpt #:   194  of   201
     total cpu time spent up to now is       63.3 secs

     Computing kpt #:   195  of   201
     total cpu time spent up to now is       63.6 secs

     Computing kpt #:   196  of   201
     total cpu time spent up to now is       63.9 secs

     Computing kpt #:   197  of   201
     total cpu time spent up to now is       64.1 secs

     Computing kpt #:   198  of   201
     total cpu time spent up to now is       64.4 secs

     Computing kpt #:   199  of   201
     total cpu time spent up to now is       64.7 secs

     Computing kpt #:   200  of   201
     total cpu time spent up to now is       64.9 secs

     Computing kpt #:   201  of   201
     total cpu time spent up to now is       65.2 secs

     ethr =  2.00E-12,  avg # of iterations = 56.0

     total cpu time spent up to now is       65.2 secs

     End of band structure calculation

          k = 0.5000-0.0000 0.6124 (  1604 PWs)   bands (ev):

   -17.6818 -17.6787 -17.6728 -17.6727 -17.6706  -3.5855  -0.9220   2.4812
     2.4813   6.7866   8.1290  12.8280  12.8280  13.4827  13.4828  18.9423
    19.1282  20.4590  21.1419  21.1420  21.3227  24.5684  24.8752  25.5564
    25.5564  28.0558  28.1571  29.3805  29.3805  29.9378

          k = 0.5000 0.0058 0.6042 (  1588 PWs)   bands (ev):

   -17.6818 -17.6787 -17.6728 -17.6727 -17.6706  -3.5861  -0.9232   2.4834
     2.4840   6.7862   8.1283  12.8275  12.8285  13.4792  13.4802  18.9449
    19.1309  20.4242  21.0508  21.1823  21.4191  24.5602  24.8599  25.5571
    25.5638  28.0601  28.1613  29.3813  29.3819  29.8974

          k = 0.5000 0.0115 0.5960 (  1586 PWs)   bands (ev):

   -17.6818 -17.6787 -17.6728 -17.6727 -17.6706  -3.5877  -0.9269   2.4896
     2.4923   6.7848   8.1262  12.8257  12.8300  13.4687  13.4727  18.9525
    19.1388  20.3376  20.9100  21.2857  21.5760  24.5358  24.8163  25.5590
    25.5837  28.0730  28.1739  29.3830  29.3856  29.8037

          k = 0.5000 0.0173 0.5879 (  1586 PWs)   bands (ev):

   -17.6818 -17.6787 -17.6728 -17.6727 -17.6706  -3.5903  -0.9330   2.4999
     2.5060   6.7825   8.1227  12.8219  12.8318  13.4519  13.4610  18.9648
    19.1515  20.2266  20.7681  21.4249  21.7448  24.4961  24.7493  25.5617
    25.6114  28.0942  28.1945  29.3816  29.3886  29.6938

          k = 0.5000 0.0231 0.5797 (  1586 PWs)   bands (ev):

   -17.6818 -17.6788 -17.6728 -17.6727 -17.6706  -3.5941  -0.9415   2.5143
     2.5251   6.7793   8.1178  12.8150  12.8333  13.4299  13.4465  18.9813
    19.1679  20.1079  20.6307  21.5841  21.9202  24.4422  24.6642  25.5644
    25.6421  28.1237  28.2227  29.3651  29.3805  29.5936

          k = 0.5000 0.0289 0.5715 (  1584 PWs)   bands (ev):

   -17.6818 -17.6788 -17.6728 -17.6727 -17.6706  -3.5988  -0.9521   2.5328
     2.5495   6.7752   8.1117  12.8032  12.8329  13.4041  13.4313  19.0011
    19.1864  19.9901  20.4999  21.7558  22.1008  24.3755  24.5652  25.5666
    25.6722  28.1611  28.2577  29.3102  29.3343  29.5356

          k = 0.5000 0.0346 0.5634 (  1584 PWs)   bands (ev):

   -17.6818 -17.6788 -17.6728 -17.6727 -17.6706  -3.6046  -0.9650   2.5554
     2.5791   6.7703   8.1042  12.7844  12.8288  13.3770  13.4178  19.0231
    19.2041  19.8794  20.3770  21.9364  22.2860  24.2974  24.4553  25.5677
    25.6994  28.2058  28.2985  29.2171  29.2433  29.5292

          k = 0.5000 0.0404 0.5552 (  1584 PWs)   bands (ev):

   -17.6818 -17.6788 -17.6728 -17.6727 -17.6706  -3.6113  -0.9798   2.5819
     2.6137   6.7645   8.0955  12.7564  12.8181  13.3515  13.4084  19.0455
    19.2156  19.7827  20.2635  22.1238  22.4754  24.2091  24.3366  25.5673
    25.7225  28.2573  28.3436  29.1104  29.1353  29.5474

          k = 0.5000 0.0462 0.5471 (  1584 PWs)   bands (ev):

   -17.6817 -17.6788 -17.6728 -17.6727 -17.6707  -3.6189  -0.9965   2.6125
     2.6532   6.7580   8.0857  12.7173  12.7976  13.3315  13.4056  19.0661
    19.2124  19.7091  20.1617  22.3167  22.6686  24.1121  24.2109  25.5653
    25.7409  28.3148  28.3905  29.0047  29.0250  29.5762

          k = 0.5000 0.0520 0.5389 (  1586 PWs)   bands (ev):

   -17.6817 -17.6788 -17.6728 -17.6727 -17.6707  -3.6274  -1.0149   2.6469
     2.6975   6.7507   8.0748  12.6660  12.7644  13.3201  13.4108  19.0817
    19.1845  19.6686  20.0742  22.5142  22.8654  24.0075  24.0792  25.5616
    25.7544  28.3770  28.4342  28.9087  28.9175  29.6109

          k = 0.5000 0.0577 0.5307 (  1584 PWs)   bands (ev):

   -17.6817 -17.6788 -17.6728 -17.6727 -17.6707  -3.6367  -1.0348   2.6852
     2.7462   6.7427   8.0628  12.6024  12.7167  13.3196  13.4247  19.0887
    19.1294  19.6639  20.0044  22.7155  23.0652  23.8965  23.9429  25.5564
    25.7634  28.4411  28.4637  28.8163  28.8344  29.6476

          k = 0.5000 0.0635 0.5226 (  1584 PWs)   bands (ev):

   -17.6816 -17.6789 -17.6727 -17.6727 -17.6708  -3.6468  -1.0561   2.7272
     2.7994   6.7341   8.0499  12.5269  12.6545  13.3303  13.4470  19.0539
    19.0832  19.6877  19.9558  22.9194  23.2672  23.7804  23.8031  25.5500
    25.7681  28.4601  28.4986  28.7301  28.8008  29.6870

          k = 0.5000 0.0693 0.5144 (  1584 PWs)   bands (ev):

   -17.6816 -17.6789 -17.6727 -17.6727 -17.6708  -3.6576  -1.0785   2.7730
     2.8568   6.7249   8.0361  12.4407  12.5792  13.3514  13.4773  18.9676
    19.0623  19.7303  19.9308  23.1237  23.4669  23.6617  23.6650  25.5429
    25.7692  28.4145  28.5143  28.6937  28.8165  29.7286

          k = 0.5000 0.0751 0.5062 (  1584 PWs)   bands (ev):

   -17.6815 -17.6789 -17.6727 -17.6727 -17.6708  -3.6691  -1.1021   2.8225
     2.9182   6.7152   8.0215  12.3449  12.4925  13.3814  13.5146  18.8765
    19.0258  19.7850  19.9292  23.3174  23.4979  23.5515  23.6949  25.5357
    25.7674  28.3427  28.4586  28.7358  28.8651  29.7714

          k = 0.5000 0.0808 0.4981 (  1582 PWs)   bands (ev):

   -17.6815 -17.6789 -17.6727 -17.6727 -17.6709  -3.6812  -1.1264   2.8755
     2.9834   6.7049   8.0062  12.2408  12.3962  13.4189  13.5583  18.7844
    18.9757  19.8478  19.9483  23.3549  23.3639  23.5862  23.8982  25.5293
    25.7636  28.2608  28.3775  28.8098  28.9299  29.8146

          k = 0.5000 0.0866 0.4899 (  1580 PWs)   bands (ev):

   -17.6815 -17.6790 -17.6727 -17.6727 -17.6709  -3.6938  -1.1515   2.9321
     3.0523   6.6943   7.9903  12.1293  12.2919  13.4630  13.6077  18.6930
    18.9154  19.9162  19.9844  23.2053  23.2495  23.7789  24.1073  25.5249
    25.7588  28.1761  28.2927  28.8930  29.0023  29.8574

          k = 0.5000 0.0924 0.4817 (  1574 PWs)   bands (ev):

   -17.6814 -17.6790 -17.6727 -17.6726 -17.6710  -3.7068  -1.1772   2.9921
     3.1247   6.6833   7.9739  12.0114  12.1807  13.5126  13.6622  18.6036
    18.8486  19.9886  20.0331  23.0542  23.1191  23.9836  24.3166  25.5244
    25.7545  28.0920  28.2088  28.9797  29.0781  29.8987

          k = 0.5000 0.0981 0.4736 (  1574 PWs)   bands (ev):

   -17.6814 -17.6790 -17.6728 -17.6726 -17.6710  -3.7203  -1.2033   3.0554
     3.2005   6.6720   7.9570  11.8880  12.0635  13.5671  13.7214  18.5165
    18.7778  20.0636  20.0912  22.9026  22.9853  24.1857  24.5235  25.5305
    25.7529  28.0098  28.1272  29.0671  29.1540  29.9378

          k = 0.5000 0.1039 0.4654 (  1574 PWs)   bands (ev):

   -17.6813 -17.6791 -17.6728 -17.6726 -17.6710  -3.7341  -1.2296   3.1221
     3.2794   6.6605   7.9397  11.7596  11.9412  13.6262  13.7849  18.4323
    18.7053  20.1400  20.1557  22.7515  22.8506  24.3792  24.7243  25.5475
    25.7576  27.9301  28.0481  29.1529  29.2273  29.9746

          k = 0.5000 0.1097 0.4572 (  1570 PWs)   bands (ev):

   -17.6813 -17.6791 -17.6728 -17.6726 -17.6711  -3.7482  -1.2562   3.1919
     3.3614   6.6488   7.9221  11.6270  11.8145  13.6893  13.8524  18.3510
    18.6324  20.2167  20.2241  22.6022  22.7168  24.5567  24.9127  25.5820
    25.7748  27.8533  27.9717  29.2343  29.2944  30.0095

          k = 0.5000 0.1155 0.4491 (  1576 PWs)   bands (ev):

   -17.6812 -17.6792 -17.6728 -17.6725 -17.6711  -3.7626  -1.2827   3.2648
     3.4463   6.6371   7.9044  11.4906  11.6838  13.7563  13.9236  18.2728
    18.5602  20.2922  20.2943  22.4558  22.5852  24.7089  25.0780  25.6428
    25.8151  27.7796  27.8979  29.3073  29.3507  30.0446

          k = 0.5000 0.1212 0.4409 (  1570 PWs)   bands (ev):

   -17.6812 -17.6792 -17.6728 -17.6725 -17.6712  -3.7770  -1.3092   3.3407
     3.5339   6.6253   7.8865  11.3510  11.5497  13.8268  13.9983  18.1978
    18.4893  20.3638  20.3648  22.3140  22.4578  24.8267  25.2056  25.7384
    25.8927  27.7091  27.8267  29.3668  29.3907  30.0823

          k = 0.5000 0.1270 0.4327 (  1570 PWs)   bands (ev):

   -17.6811 -17.6792 -17.6728 -17.6725 -17.6712  -3.7916  -1.3355   3.4195
     3.6242   6.6136   7.8686  11.2086  11.4126  13.9008  14.0763  18.1258
    18.4201  20.4299  20.4322  22.1794  22.3370  24.9071  25.2868  25.8712
    26.0158  27.6419  27.7579  29.4066  29.4093  30.1201

          k = 0.5000 0.1328 0.4246 (  1570 PWs)   bands (ev):

   -17.6810 -17.6793 -17.6728 -17.6725 -17.6713  -3.8062  -1.3615   3.5012
     3.7169   6.6021   7.8507  11.0639  11.2729  13.9779  14.1574  18.0570
    18.3530  20.4887  20.4915  22.0551  22.2256  24.9553  25.3279  26.0348
    26.1775  27.5782  27.6912  29.4037  29.4220  30.1701

          k = 0.5000 0.1386 0.4164 (  1570 PWs)   bands (ev):

   -17.6810 -17.6793 -17.6728 -17.6724 -17.6713  -3.8207  -1.3872   3.5857
     3.8120   6.5907   7.8329  10.9171  11.1309  14.0580  14.2414  17.9914
    18.2881  20.5356  20.5387  21.9460  22.1278  24.9802  25.3428  26.2187
    26.3625  27.5182  27.6265  29.3752  29.4122  30.2357

          k = 0.5000 0.1443 0.4082 (  1570 PWs)   bands (ev):

   -17.6809 -17.6794 -17.6728 -17.6724 -17.6713  -3.8352  -1.4124   3.6728
     3.9093   6.5797   7.8152  10.7687  10.9869  14.1411  14.3282  17.9287
    18.2256  20.5642  20.5692  21.8580  22.0483  24.9898  25.3423  26.4125
    26.5584  27.4627  27.5636  29.3288  29.3815  30.3167

          k = 0.5000 0.1501 0.4001 (  1570 PWs)   bands (ev):

   -17.6809 -17.6794 -17.6729 -17.6724 -17.6714  -3.8495  -1.4371   3.7624
     4.0087   6.5691   7.7978  10.6189  10.8412  14.2269  14.4177  17.8692
    18.1657  20.5679  20.5781  21.7977  21.9919  24.9896  25.3329  26.6064
    26.7564  27.4130  27.5020  29.2715  29.3377  30.4107

          k = 0.5000 0.1559 0.3919 (  1570 PWs)   bands (ev):

   -17.6808 -17.6794 -17.6729 -17.6724 -17.6714  -3.8637  -1.4612   3.8545
     4.1100   6.5589   7.7806  10.4680  10.6941  14.3154  14.5096  17.8127
    18.1083  20.5417  20.5615  21.7701  21.9627  24.9831  25.3181  26.7896
    26.9491  27.3726  27.4416  29.2118  29.2903  30.5148

          k = 0.5000 0.1617 0.3838 (  1572 PWs)   bands (ev):

   -17.6808 -17.6795 -17.6729 -17.6723 -17.6715  -3.8776  -1.4847   3.9490
     4.2131   6.5494   7.7638  10.3164  10.5458  14.4064  14.6039  17.7591
    18.0534  20.4849  20.5183  21.7758  21.9620  24.9723  25.2999  26.9446
    27.1294  27.3507  27.3821  29.1594  29.2495  30.6265

          k = 0.5000 0.1674 0.3756 (  1568 PWs)   bands (ev):

   -17.6807 -17.6795 -17.6729 -17.6723 -17.6715  -3.8912  -1.5074   4.0457
     4.3178   6.5405   7.7474  10.1643  10.3964  14.4998  14.7004  17.7085
    18.0012  20.4013  20.4502  21.8110  21.9878  24.9589  25.2793  27.0422
    27.2851  27.3269  27.3670  29.1257  29.2265  30.7443

          k = 0.5000 0.1732 0.3674 (  1570 PWs)   bands (ev):

   -17.6806 -17.6796 -17.6729 -17.6723 -17.6715  -3.9044  -1.5294   4.1445
     4.4240   6.5326   7.7313  10.0119  10.2464  14.5955  14.7990  17.6609
    17.9516  20.2970  20.3613  21.8697  22.0362  24.9435  25.2572  27.0680
    27.2601  27.4226  27.4243  29.1237  29.2329  30.8668

          k = 0.5000 0.1790 0.3593 (  1570 PWs)   bands (ev):

   -17.6806 -17.6796 -17.6729 -17.6722 -17.6715  -3.9173  -1.5506   4.2454
     4.5315   6.5256   7.7158   9.8595  10.0957  14.6932  14.8994  17.6163
    17.9046  20.1781  20.2564  21.9457  22.1025  24.9269  25.2338  27.0515
    27.1991  27.4820  27.5159  29.1654  29.2788  30.9933

          k = 0.5000 0.1848 0.3511 (  1572 PWs)   bands (ev):

   -17.6805 -17.6796 -17.6730 -17.6722 -17.6716  -3.9298  -1.5709   4.3480
     4.6400   6.5198   7.7008   9.7075   9.9447  14.7930  15.0016  17.5746
    17.8602  20.0492  20.1396  22.0344  22.1826  24.9093  25.2095  27.0188
    27.1357  27.5087  27.5693  29.2575  29.3697  31.1231

          k = 0.5000 0.1905 0.3429 (  1568 PWs)   bands (ev):

   -17.6805 -17.6797 -17.6730 -17.6722 -17.6716  -3.9418  -1.5903   4.4524
     4.7492   6.5154   7.6863   9.5559   9.7934  14.8945  15.1053  17.5359
    17.8183  19.9137  20.0143  22.1325  22.2731  24.8912  25.1844  26.9790
    27.0691  27.4978  27.5861  29.3979  29.5039  31.2525

          k = 0.5000 0.1963 0.3348 (  1568 PWs)   bands (ev):

   -17.6804 -17.6797 -17.6730 -17.6722 -17.6716  -3.9533  -1.6087   4.5583
     4.8589   6.5127   7.6725   9.4052   9.6421  14.9978  15.2103  17.5003
    17.7790  19.7741  19.8830  22.2376  22.3714  24.8726  25.1584  26.9351
    26.9985  27.4557  27.5746  29.5783  29.6747  31.3811

          k = 0.5000 0.2021 0.3266 (  1574 PWs)   bands (ev):

   -17.6804 -17.6798 -17.6730 -17.6721 -17.6716  -3.9643  -1.6262   4.6656
     4.9685   6.5120   7.6592   9.2556   9.4910  15.1024  15.3163  17.4677
    17.7423  19.6322  19.7477  22.3478  22.4757  24.8537  25.1314  26.8872
    26.9233  27.3926  27.5447  29.7888  29.8740  31.5119

          k = 0.5000 0.2078 0.3184 (  1572 PWs)   bands (ev):

   -17.6804 -17.6798 -17.6730 -17.6721 -17.6717  -3.9747  -1.6427   4.7739
     5.0777   6.5138   7.6466   9.1073   9.3401  15.2082  15.4231  17.4384
    17.7081  19.4893  19.6099  22.4621  22.5845  24.8344  25.1034  26.8344
    26.8430  27.3182  27.5048  30.0212  30.0942  31.6446

          k = 0.5000 0.2136 0.3103 (  1572 PWs)   bands (ev):

   -17.6803 -17.6798 -17.6731 -17.6721 -17.6717  -3.9845  -1.6582   4.8831
     5.1858   6.5187   7.6346   8.9609   9.1897  15.3150  15.5303  17.4124
    17.6765  19.3463  19.4705  22.5794  22.6966  24.8146  25.0739  26.7577
    26.7748  27.2410  27.4611  30.2694  30.3299  31.7791

          k = 0.5000 0.2194 0.3021 (  1570 PWs)   bands (ev):

   -17.6803 -17.6799 -17.6731 -17.6721 -17.6717  -3.9937  -1.6726   4.9927
     5.2919   6.5274   7.6233   8.8167   9.0399  15.4223  15.6375  17.3900
    17.6473  19.2042  19.3306  22.6991  22.8111  24.7944  25.0427  26.6683
    26.7067  27.1676  27.4175  30.5291  30.5769  31.9151

          k = 0.5000 0.2252 0.2939 (  1562 PWs)   bands (ev):

   -17.6802 -17.6799 -17.6731 -17.6721 -17.6717  -4.0023  -1.6860   5.1024
     5.3949   6.5408   7.6127   8.6751   8.8909  15.5298  15.7440  17.3714
    17.6207  19.0638  19.1908  22.8205  22.9273  24.7735  25.0093  26.5761
    26.6291  27.1023  27.3763  30.7975  30.8323  32.0526

          k = 0.5000 0.2309 0.2858 (  1560 PWs)   bands (ev):

   -17.6802 -17.6799 -17.6731 -17.6721 -17.6717  -4.0102  -1.6982   5.2117
     5.4936   6.5602   7.6026   8.5369   8.7430  15.6369  15.8492  17.3571
    17.5966  18.9259  19.0519  22.9429  23.0442  24.7515  24.9730  26.4828
    26.5430  27.0469  27.3389  31.0724  31.0940  32.1913

          k = 0.5000 0.2367 0.2776 (  1564 PWs)   bands (ev):

   -17.6802 -17.6799 -17.6731 -17.6720 -17.6717  -4.0174  -1.7093   5.3198
     5.5863   6.5870   7.5931   8.4027   8.5963  15.7430  15.9523  17.3474
    17.5751  18.7913  18.9145  23.0658  23.1611  24.7283  24.9333  26.3905
    26.4508  27.0015  27.3055  31.3522  31.3601  32.3310

          k = 0.5000 0.2425 0.2694 (  1566 PWs)   bands (ev):

   -17.6801 -17.6800 -17.6732 -17.6720 -17.6717  -4.0239  -1.7193   5.4259
     5.6713   6.6228   7.5841   8.2737   8.4511  15.8472  16.0519  17.3430
    17.5560  18.6610  18.7795  23.1886  23.2772  24.7033  24.8895  26.3012
    26.3558  26.9645  27.2763  31.6292  31.6355  32.4715

          k = 0.5000 0.2483 0.2613 (  1566 PWs)   bands (ev):

   -17.6801 -17.6800 -17.6732 -17.6720 -17.6717  -4.0297  -1.7282   5.5289
     5.7468   6.6689   7.5755   8.1511   8.3077  15.9484  16.1468  17.3447
    17.5396  18.5362  18.6476  23.3105  23.3915  24.6762  24.8409  26.2172
    26.2617  26.9346  27.2512  31.8997  31.9211  32.6123

          k = 0.5000 0.2540 0.2531 (  1566 PWs)   bands (ev):

   -17.6801 -17.6800 -17.6732 -17.6720 -17.6717  -4.0347  -1.7359   5.6274
     5.8113   6.7266   7.5668   8.0368   8.1665  16.0450  16.2350  17.3533
    17.5258  18.4186  18.5199  23.4304  23.5026  24.6465  24.7871  26.1405
    26.1718  26.9105  27.2299  32.1695  32.2073  32.7531

          k = 0.5000 0.2598 0.2449 (  1558 PWs)   bands (ev):

   -17.6801 -17.6800 -17.6732 -17.6720 -17.6718  -4.0390  -1.7424   5.7192
     5.8643   6.7958   7.5577   7.9332   8.0283  16.1352  16.3147  17.3694
    17.5147  18.3100  18.3979  23.5471  23.6090  24.6140  24.7282  26.0730
    26.0892  26.8913  27.2123  32.4358  32.4916  32.8938

          k = 0.5000 0.2656 0.2368 (  1560 PWs)   bands (ev):

   -17.6801 -17.6800 -17.6732 -17.6720 -17.6718  -4.0425  -1.7478   5.8019
     5.9057   6.8756   7.5476   7.8436   7.8940  16.2163  16.3834  17.3931
    17.5062  18.2132  18.2839  23.6586  23.7082  24.5791  24.6651  26.0161
    26.0168  26.8763  27.1981  32.6934  32.7685  33.0356

          k = 0.5000 0.2714 0.2286 (  1560 PWs)   bands (ev):

   -17.6801 -17.6800 -17.6732 -17.6720 -17.6718  -4.0452  -1.7520   5.8723
     5.9363   6.9633   7.5357   7.7654   7.7717  16.2852  16.4391  17.4233
    17.5003  18.1313  18.1812  23.7614  23.7968  24.5431  24.6005  25.9572
    25.9709  26.8649  27.1873  32.9330  33.0187  33.1905

          k = 0.5000 0.2771 0.2205 (  1566 PWs)   bands (ev):

   -17.6801 -17.6800 -17.6732 -17.6720 -17.6718  -4.0472  -1.7549   5.9266
     5.9571   7.0538   7.5226   7.6467   7.7210  16.3384  16.4799  17.4560
    17.4966  18.0682  18.0956  23.8498  23.8697  24.5094  24.5396  25.9129
    25.9383  26.8570  27.1796  33.1360  33.1929  33.3944

          k = 0.5000 0.2829 0.2123 (  1568 PWs)   bands (ev):

   -17.6801 -17.6800 -17.6732 -17.6720 -17.6718  -4.0484  -1.7567   5.9612
     5.9691   7.1345   7.5112   7.5495   7.6921  16.3722  16.5049  17.4833
    17.4948  18.0282  18.0362  23.9133  23.9193  24.4840  24.4927  25.8855
    25.9186  26.8524  27.1750  33.2740  33.2891  33.6216

          k = 0.5000 0.2887 0.2041 (  1568 PWs)   bands (ev):

   -17.6801 -17.6800 -17.6732 -17.6720 -17.6718  -4.0488  -1.7573   5.9731
     5.9731   7.1721   7.5064   7.5067   7.6829  16.3838  16.5132  17.4942
    17.4943  18.0144  18.0144  23.9372  23.9372  24.4742  24.4743  25.8763
    25.9120  26.8508  27.1735  33.3222  33.3223  33.7850

          k = 0.5042 0.2766 0.2109 (  1568 PWs)   bands (ev):

   -17.6801 -17.6800 -17.6732 -17.6720 -17.6718  -4.0479  -1.7561   5.9484
     5.9650   7.1013   7.5166   7.5875   7.7026  16.3598  16.4959  17.4713
    17.4967  18.0421  18.0593  23.8884  23.9015  24.4926  24.5119  25.8954
    25.9258  26.8540  27.1767  33.2294  33.2471  33.5403

          k = 0.5083 0.2646 0.2177 (  1563 PWs)   bands (ev):

   -17.6801 -17.6800 -17.6732 -17.6720 -17.6718  -4.0455  -1.7524   5.8774
     5.9413   6.9716   7.5462   7.7138   7.7922  16.2910  16.4462  17.4132
    17.5148  18.1144  18.1774  23.7650  23.8145  24.5263  24.6052  25.9467
    25.9711  26.8639  27.1863  33.0099  33.0105  33.2209

          k = 0.5125 0.2526 0.2245 (  1557 PWs)   bands (ev):

   -17.6801 -17.6800 -17.6732 -17.6720 -17.6718  -4.0414  -1.7461   5.7682
     5.9037   6.8373   7.5935   7.7965   7.9783  16.1831  16.3741  17.3376
    17.5603  18.2137  18.3413  23.6011  23.7034  24.5473  24.7264  26.0067
    26.0640  26.8808  27.2025  32.6728  32.7361  32.8807

          k = 0.5167 0.2406 0.2313 (  1564 PWs)   bands (ev):

   -17.6801 -17.6800 -17.6732 -17.6720 -17.6718  -4.0357  -1.7375   5.6304
     5.8547   6.7082   7.6562   7.8863   8.1907  16.0430  16.2921  17.2555
[...]
    29.9610  29.9892  31.2155  31.2334  31.2981  32.2999

          k = 0.0150 0.0087 0.0245 (  1555 PWs)   bands (ev):

   -17.6789 -17.6789 -17.6740 -17.6737 -17.6737  -5.7563   2.2407   5.5648
     5.5840   5.6008  10.7826  10.7908  10.8427  12.5284  12.5478  12.5695
    14.7576  14.8015  15.5052  15.6703  29.1476  29.2419  29.6113  29.6862
    30.1268  30.2457  31.1254  31.1680  31.4047  32.4160

          k = 0.0225 0.0130 0.0367 (  1553 PWs)   bands (ev):

   -17.6789 -17.6789 -17.6740 -17.6737 -17.6737  -5.7488   2.2044   5.5494
     5.5925   5.6298  10.7153  10.7330  10.8478  12.5141  12.5569  12.6054
    14.7891  14.8876  15.5652  15.7194  28.8008  29.0004  29.4731  29.6296
    30.2202  30.5060  31.0533  31.0882  31.5605  32.5811

          k = 0.0300 0.0173 0.0490 (  1561 PWs)   bands (ev):

   -17.6789 -17.6789 -17.6739 -17.6737 -17.6737  -5.7381   2.1548   5.5280
     5.6044   5.6692  10.6255  10.6553  10.8550  12.4957  12.5695  12.6553
    14.8287  15.0036  15.6473  15.7894  28.4303  28.7628  29.3090  29.5494
    30.2305  30.7700  31.0125  31.0354  31.7492  32.7774

          k = 0.0375 0.0217 0.0612 (  1561 PWs)   bands (ev):

   -17.6789 -17.6789 -17.6739 -17.6737 -17.6737  -5.7245   2.0931   5.5006
     5.6196   5.7180  10.5170  10.5603  10.8642  12.4746  12.5857  12.7190
    14.8735  15.1460  15.7501  15.8809  28.0430  28.5290  29.1301  29.4463
    30.1696  30.9505  31.0376  31.0711  31.9599  32.9942

          k = 0.0450 0.0260 0.0735 (  1553 PWs)   bands (ev):

   -17.6790 -17.6789 -17.6739 -17.6737 -17.6737  -5.7079   2.0206   5.4674
     5.6381   5.7751  10.3933  10.4507  10.8754  12.4523  12.6055  12.7961
    14.9209  15.3111  15.8720  15.9936  27.6445  28.2990  28.9429  29.3228
    30.0657  30.9058  31.1378  31.3089  32.1859  33.2257

          k = 0.0525 0.0303 0.0857 (  1552 PWs)   bands (ev):

   -17.6790 -17.6789 -17.6739 -17.6737 -17.6736  -5.6883   1.9385   5.4285
     5.6598   5.8393  10.2576  10.3291  10.8888  12.4301  12.6289  12.8864
    14.9693  15.4959  16.0114  16.1267  27.2389  28.0730  28.7514  29.1821
    29.9403  30.8784  31.2169  31.5839  32.4231  33.4684

          k = 0.0600 0.0346 0.0980 (  1552 PWs)   bands (ev):

   -17.6790 -17.6789 -17.6739 -17.6736 -17.6736  -5.6657   1.8481   5.3842
     5.6847   5.9096  10.1129  10.1979  10.9043  12.4095  12.6559  12.9896
    15.0177  15.6975  16.1668  16.2785  26.8294  27.8508  28.5582  29.0282
    29.8046  30.8666  31.2996  31.8624  32.6692  33.7199

          k = 0.0675 0.0390 0.1102 (  1552 PWs)   bands (ev):

   -17.6791 -17.6789 -17.6739 -17.6736 -17.6735  -5.6401   1.7506   5.3345
     5.7126   5.9848   9.9615  10.0591  10.9220  12.3914  12.6866  13.1055
    15.0661  15.9134  16.3367  16.4467  26.4182  27.6326  28.3646  28.8647
    29.6640  30.8683  31.3821  32.1445  32.9225  33.9782

          k = 0.0750 0.0433 0.1225 (  1554 PWs)   bands (ev):

   -17.6791 -17.6789 -17.6739 -17.6736 -17.6735  -5.6117   1.6473   5.2798
     5.7434   6.0641   9.8056   9.9147  10.9419  12.3769  12.7208  13.2339
    15.1145  16.1419  16.5199  16.6292  26.0073  27.4183  28.1719  28.6945
    29.5211  30.8814  31.4632  32.4301  33.1819  34.2367

          k = 0.0825 0.0476 0.1347 (  1554 PWs)   bands (ev):

   -17.6792 -17.6789 -17.6739 -17.6735 -17.6734  -5.5803   1.5392   5.2203
     5.7770   6.1466   9.6468   9.7661  10.9640  12.3667  12.7587  13.3743
    15.1635  16.3813  16.7153  16.8236  25.5982  27.2080  27.9806  28.5201
    29.3775  30.9042  31.5428  32.7191  33.4468  34.1305

          k = 0.0900 0.0520 0.1470 (  1558 PWs)   bands (ev):

   -17.6792 -17.6789 -17.6738 -17.6735 -17.6733  -5.5461   1.4271   5.1563
     5.8132   6.2316   9.4866   9.6148  10.9885  12.3614  12.8001  13.5264
    15.2134  16.6302  16.9220  17.0276  25.1922  27.0016  27.7913  28.3431
    29.2341  30.9355  31.6208  33.0114  33.7165  33.7355

          k = 0.0975 0.0563 0.1592 (  1558 PWs)   bands (ev):

   -17.6793 -17.6789 -17.6738 -17.6734 -17.6733  -5.5091   1.3119   5.0880
     5.8517   6.3184   9.3264   9.4619  11.0154  12.3615  12.8451  13.6901
    15.2646  16.8877  17.1391  17.2391  24.7907  26.7994  27.6044  28.1650
    29.0916  30.9741  31.6978  33.3071  33.3366  33.9906

          k = 0.1050 0.0606 0.1715 (  1556 PWs)   bands (ev):

   -17.6793 -17.6789 -17.6738 -17.6734 -17.6732  -5.4693   1.1945   5.0159
     5.8922   6.4064   9.1672   9.3085  11.0448  12.3672  12.8938  13.8648
    15.3174  17.1529  17.3659  17.4560  24.3951  26.6011  27.4200  27.9869
    28.9507  31.0192  31.7739  32.9379  33.6057  34.2687

          k = 0.1125 0.0650 0.1837 (  1556 PWs)   bands (ev):

   -17.6794 -17.6789 -17.6738 -17.6733 -17.6731  -5.4268   1.0753   4.9401
     5.9344   6.4951   9.0100   9.1556  11.0767  12.3787  12.9460  14.0503
    15.3721  17.4251  17.6017  17.6758  24.0069  26.4070  27.2383  27.8095
    28.8117  31.0699  31.8496  32.5404  33.9071  34.0601

          k = 0.1200 0.0693 0.1960 (  1560 PWs)   bands (ev):

   -17.6794 -17.6790 -17.6738 -17.6733 -17.6730  -5.3816   0.9552   4.8611
     5.9777   6.5837   8.8560   9.0042  11.1113  12.3962  13.0019  14.2462
    15.4289  17.7037  17.8461  17.8959  23.6283  26.2169  27.0596  27.6334
    28.6751  31.1250  31.9250  32.1453  33.7044  34.2104

          k = 0.1275 0.0736 0.2082 (  1564 PWs)   bands (ev):

   -17.6795 -17.6790 -17.6737 -17.6732 -17.6730  -5.3338   0.8345   4.7791
     6.0215   6.6716   8.7063   8.8555  11.1486  12.4196  13.0614  14.4520
    15.4879  17.9882  18.0984  18.1132  23.2617  26.0310  26.8839  27.4591
    28.5414  31.1809  31.7560  32.0002  33.3458  34.5139

          k = 0.1350 0.0779 0.2205 (  1564 PWs)   bands (ev):

   -17.6795 -17.6790 -17.6737 -17.6732 -17.6729  -5.2835   0.7139   4.6945
     6.0651   6.7578   8.5619   8.7106  11.1886  12.4490  13.1244  14.6675
    15.5491  18.2781  18.3235  18.3584  22.9110  25.8493  26.7113  27.2870
    28.4110  31.2000  31.4102  32.0747  32.9860  34.8111

          k = 0.1425 0.0823 0.2327 (  1572 PWs)   bands (ev):

   -17.6796 -17.6791 -17.6737 -17.6731 -17.6728  -5.2307   0.5937   4.6077
     6.1073   6.8408   8.4243   8.5713  11.2315  12.4842  13.1911  14.8922
    15.6127  18.5208  18.5732  18.6257  22.5815  25.6718  26.5420  27.1174
    28.2843  30.9262  31.3639  32.1447  32.6296  35.0525

          k = 0.1500 0.0866 0.2449 (  1570 PWs)   bands (ev):

   -17.6796 -17.6791 -17.6737 -17.6730 -17.6727  -5.1756   0.4743   4.5189
     6.1468   6.9188   8.2951   8.4397  11.2773  12.5252  13.2614  15.1257
    15.6786  18.6971  18.8731  18.8998  22.2810  25.4986  26.3758  26.9506
    28.1619  30.5461  31.4307  32.1553  32.3324  34.9169

          k = 0.1575 0.0909 0.2572 (  1570 PWs)   bands (ev):

   -17.6796 -17.6791 -17.6736 -17.6730 -17.6727  -5.1182   0.3562   4.4284
     6.1819   6.9887   8.1762   8.3191  11.3260  12.5719  13.3352  15.3675
    15.7468  18.8406  19.1775  19.1806  22.0209  25.3296  26.2130  26.7867
    28.0442  30.1597  31.5106  31.8638  32.3377  34.5532

          k = 0.1650 0.0953 0.2694 (  1574 PWs)   bands (ev):

   -17.6797 -17.6792 -17.6736 -17.6729 -17.6726  -5.0586   0.2397   4.3366
     6.2104   7.0458   8.0699   8.2144  11.3776  12.6240  13.4127  15.6169
    15.8175  18.9361  19.4678  19.4861  21.8158  25.1650  26.0535  26.6259
    27.9318  29.7733  31.5060  31.5972  32.4105  34.1661

          k = 0.1725 0.0996 0.2817 (  1566 PWs)   bands (ev):

   -17.6797 -17.6793 -17.6735 -17.6728 -17.6725  -4.9970   0.1251   4.2438
     6.2300   7.0838   7.9788   8.1323  11.4321  12.6815  13.4938  15.8637
    15.9003  18.9672  19.7610  19.7988  21.6820  25.0048  25.8974  26.4686
    27.8255  29.3884  31.1433  31.6894  32.4899  33.7753

          k = 0.1800 0.1039 0.2939 (  1566 PWs)   bands (ev):

   -17.6797 -17.6793 -17.6735 -17.6728 -17.6725  -4.9335   0.0127   4.1502
     6.2378   7.0953   7.9058   8.0802  11.4895  12.7443  13.5784  15.9590
    16.1430  18.9230  20.0602  20.1151  21.6301  24.8490  25.7447  26.3147
    27.7259  29.0055  30.7802  31.7865  32.5717  33.3847

          k = 0.1875 0.1083 0.3062 (  1570 PWs)   bands (ev):

   -17.6798 -17.6794 -17.6735 -17.6727 -17.6724  -4.8683  -0.0970   4.0562
     6.2316   7.0751   7.8533   8.0634  11.5498  12.8121  13.6667  16.0335
    16.4139  18.8053  20.3650  20.4349  21.6583  24.6977  25.5954  26.1645
    27.6340  28.6249  30.4181  31.8885  32.6547  32.9955

          k = 0.1950 0.1126 0.3184 (  1570 PWs)   bands (ev):

   -17.6798 -17.6794 -17.6734 -17.6726 -17.6724  -4.8015  -0.2039   3.9619
     6.2096   7.0239   7.8231   8.0816  11.6128  12.8850  13.7586  16.1068
    16.6914  18.6283  20.6753  20.7579  21.7528  24.5511  25.4495  26.0183
    27.5507  28.2468  30.0577  31.9952  32.6083  32.7383

          k = 0.2025 0.1169 0.3307 (  1566 PWs)   bands (ev):

   -17.6798 -17.6795 -17.6733 -17.6725 -17.6724  -4.7334  -0.3075   3.8677
     6.1715   6.9478   7.8157   8.1287  11.6785  12.9627  13.8541  16.1778
    16.9739  18.4117  20.9909  21.0837  21.8953  24.4092  25.3071  25.8762
    27.4773  27.8715  29.6996  32.1065  32.2235  32.8216

          k = 0.2100 0.1212 0.3429 (  1568 PWs)   bands (ev):

   -17.6798 -17.6796 -17.6733 -17.6725 -17.6723  -4.6642  -0.4076   3.7737
     6.1181   6.8545   7.8301   8.1971  11.7468  13.0452  13.9531  16.2432
    17.2584  18.1764  21.3115  21.4118  22.0691  24.2721  25.1682  25.7387
    27.4153  27.4991  29.3443  31.8412  32.2225  32.6325

          k = 0.2175 0.1256 0.3552 (  1568 PWs)   bands (ev):

   -17.6798 -17.6797 -17.6732 -17.6724 -17.6723  -4.5942  -0.5038   3.6802
     6.0515   6.7502   7.8645   8.2806  11.8176  13.1323  14.0558  16.2974
    17.5290  17.9549  21.6368  21.7415  22.2614  24.1402  25.0327  25.6059
    27.1299  27.3663  28.9924  31.4617  32.2641  32.3429

          k = 0.2250 0.1299 0.3674 (  1568 PWs)   bands (ev):

   -17.6798 -17.6798 -17.6732 -17.6723 -17.6723  -4.5236  -0.5957   3.5873
     5.9742   6.6396   7.9162   8.3748  11.8908  13.2241  14.1620  16.3293
    17.6080  17.9429  21.9663  22.0722  22.4623  24.0138  24.9007  25.4787
    26.7644  27.3323  28.6444  31.0851  31.8982  32.4679

          k = 0.2325 0.1342 0.3797 (  1564 PWs)   bands (ev):

   -17.6799 -17.6798 -17.6731 -17.6723 -17.6722  -4.4527  -0.6831   3.4953
     5.8889   6.5254   7.9828   8.4769  11.9663  13.3204  14.2719  16.3197
    17.4513  18.2087  22.2991  22.4022  22.6644  23.8938  24.7722  25.3576
    26.4031  27.3156  28.3009  30.7115  31.5350  32.5974

          k = 0.2400 0.1386 0.3919 (  1564 PWs)   bands (ev):

   -17.6800 -17.6798 -17.6730 -17.6723 -17.6722  -4.3820  -0.7654   3.4044
     5.7978   6.4095   8.0620   8.5851  12.0438  13.4211  14.3853  16.2433
    17.3286  18.5108  22.6332  22.7295  22.8615  23.7822  24.6472  25.2437
    26.0474  27.3182  27.9629  30.3409  31.1747  32.7314

          k = 0.2475 0.1429 0.4042 (  1564 PWs)   bands (ev):

   -17.6801 -17.6797 -17.6730 -17.6723 -17.6721  -4.3119  -0.8423   3.3147
     5.7028   6.2933   8.1519   8.6980  12.1233  13.5263  14.5023  16.0889
    17.2803  18.8218  22.9615  23.0486  23.0502  23.6859  24.5257  25.1374
    25.7007  27.3403  27.6339  29.9734  30.8173  32.8697

          k = 0.2550 0.1472 0.4164 (  1568 PWs)   bands (ev):

   -17.6802 -17.6797 -17.6729 -17.6724 -17.6720  -4.2427  -0.9133   3.2264
     5.6055   6.1775   8.2508   8.8150  12.2044  13.6358  14.6229  15.8728
    17.2954  19.1373  23.2211  23.2466  23.3567  23.6425  24.4078  25.0315
    25.3777  27.2791  27.4198  29.6092  30.4628  33.0122

          k = 0.2625 0.1516 0.4287 (  1572 PWs)   bands (ev):

   -17.6803 -17.6797 -17.6728 -17.6724 -17.6719  -4.1751  -0.9779   3.1396
     5.5071   6.0626   8.3576   8.9354  12.2872  13.7496  14.7470  15.6199
    17.3513  19.4554  23.3377  23.3755  23.6346  23.8026  24.2933  24.8662
    25.1528  26.9740  27.4848  29.2482  30.1114  32.8989

          k = 0.2700 0.1559 0.4409 (  1566 PWs)   bands (ev):

   -17.6804 -17.6796 -17.6727 -17.6724 -17.6719  -4.1096  -1.0357   3.0544
     5.4086   5.9491   8.4713   9.0587  12.3713  13.8677  14.8748  15.3480
    17.4315  19.7744  23.2816  23.5088  23.8554  24.1194  24.1823  24.5860
    25.1099  26.6650  27.5917  28.8906  29.7631  32.5679

          k = 0.2775 0.1602 0.4532 (  1572 PWs)   bands (ev):

   -17.6805 -17.6796 -17.6727 -17.6725 -17.6718  -4.0467  -1.0860   2.9711
     5.3107   5.8372   8.5911   9.1848  12.4566  13.9900  15.0061  15.0670
    17.5270  20.0927  23.2005  23.6196  23.9670  24.0748  24.2938  24.4706
    25.1984  26.3652  27.7296  28.5364  29.4181  32.2422

          k = 0.2850 0.1645 0.4654 (  1568 PWs)   bands (ev):

   -17.6806 -17.6795 -17.6727 -17.6725 -17.6717  -3.9870  -1.1283   2.8896
     5.2139   5.7272   8.7165   9.3132  12.5427  14.1166  14.7825  15.1409
    17.6329  20.4078  23.1170  23.7075  23.8378  23.9708  24.1453  24.8337
    25.3940  26.0779  27.8971  28.1858  29.0763  31.9219

          k = 0.2925 0.1689 0.4777 (  1578 PWs)   bands (ev):

   -17.6807 -17.6794 -17.6727 -17.6724 -17.6716  -3.9312  -1.1621   2.8101
     5.1188   5.6191   8.8468   9.4438  12.6296  14.2473  14.4980  15.2793
    17.7464  20.7166  23.0356  23.5381  23.7732  23.8704  24.1026  25.2040
    25.6645  25.8065  27.8389  28.0921  28.7378  31.6071

          k = 0.3000 0.1732 0.4899 (  1578 PWs)   bands (ev):

   -17.6808 -17.6794 -17.6728 -17.6723 -17.6716  -3.8799  -1.1869   2.7327
     5.0257   5.5131   8.9818   9.5762  12.7170  14.2155  14.3823  15.4212
    17.8659  21.0147  22.9579  23.2158  23.7734  23.8182  24.0495  25.5558
    25.5795  25.9781  27.4961  28.3117  28.4026  31.2980

          k = 0.3075 0.1775 0.5021 (  1574 PWs)   bands (ev):

   -17.6810 -17.6793 -17.6728 -17.6723 -17.6715  -3.8335  -1.2024   2.6576
     4.9348   5.4093   9.1210   9.7103  12.8045  13.9365  14.5214  15.5667
    17.9903  21.2952  22.8845  22.8914  23.6799  23.8448  23.9842  25.3326
    25.9587  26.3161  27.1584  28.0709  28.5519  30.9947

          k = 0.3150 0.1819 0.5144 (  1576 PWs)   bands (ev):

   -17.6811 -17.6792 -17.6729 -17.6722 -17.6714  -3.7926  -1.2081   2.5847
     4.8465   5.3076   9.2642   9.8458  12.8920  13.6621  14.6646  15.7157
    18.1189  21.5487  22.5688  22.8159  23.5899  23.8558  23.9126  25.1460
    26.3345  26.6689  26.8324  27.7427  28.8073  30.6975

          k = 0.3225 0.1862 0.5266 (  1576 PWs)   bands (ev):

   -17.6812 -17.6791 -17.6730 -17.6721 -17.6714  -3.7574  -1.2040   2.5142
     4.7609   5.2080   9.4109   9.9824  12.9792  13.3932  14.8120  15.8682
    18.2512  21.7619  22.2491  22.7521  23.5034  23.8384  23.8549  25.0083
    26.4512  26.7739  27.0315  27.4180  29.0703  30.4065

          k = 0.3300 0.1905 0.5389 (  1568 PWs)   bands (ev):

   -17.6813 -17.6790 -17.6731 -17.6720 -17.6713  -3.7280  -1.1900   2.4461
     4.6781   5.1108   9.5610  10.1198  13.0659  13.1308  14.9636  16.0241
    18.3867  21.9186  21.9332  22.6932  23.4203  23.7638  23.8461  24.9337
    26.1430  27.0970  27.1485  27.4011  29.3266  30.1219

          k = 0.3375 0.1949 0.5511 (  1572 PWs)   bands (ev):

   -17.6815 -17.6789 -17.6732 -17.6719 -17.6712  -3.7046  -1.1664   2.3806
     4.5984   5.0157   9.7142  10.2573  12.8755  13.1516  15.1192  16.1836
    18.5252  21.6213  22.0044  22.6392  23.3407  23.6902  23.8329  24.9352
    25.8214  26.7795  27.5449  27.7759  29.5445  29.8439

          k = 0.3450 0.1992 0.5634 (  1572 PWs)   bands (ev):

   -17.6816 -17.6788 -17.6734 -17.6718 -17.6712  -3.6868  -1.1337   2.3176
     4.5218   4.9229   9.8701  10.3945  12.6284  13.2363  15.2790  16.3464
    18.6662  21.3139  22.0139  22.5901  23.2644  23.6183  23.8161  25.0193
    25.5017  26.4659  27.9476  28.1549  29.5729  29.6563

          k = 0.3525 0.2035 0.5756 (  1576 PWs)   bands (ev):

   -17.6817 -17.6787 -17.6735 -17.6717 -17.6711  -3.6745  -1.0922   2.2573
     4.4484   4.8323  10.0286  10.5304  12.3906  13.3195  15.4428  16.5127
    18.8094  21.0112  21.9545  22.5456  23.1916  23.5487  23.7943  25.1815
    25.1855  26.1560  28.3552  28.5373  29.3091  29.6067

          k = 0.3600 0.2078 0.5879 (  1570 PWs)   bands (ev):

   -17.6819 -17.6786 -17.6736 -17.6716 -17.6710  -3.6670  -1.0430   2.1996
     4.3783   4.7439  10.1892  10.6634  12.1638  13.4009  15.6106  16.6824
    18.9546  20.7135  21.8417  22.5057  23.1220  23.4818  23.7662  24.8736
    25.4087  25.8501  28.7663  28.9225  29.0536  29.4454

          k = 0.3675 0.2122 0.6001 (  1576 PWs)   bands (ev):

   -17.6820 -17.6785 -17.6737 -17.6715 -17.6710  -3.6639  -0.9867   2.1447
     4.3115   4.6579  10.3518  10.7904  11.9511  13.4804  15.7825  16.8553
    19.1014  20.4213  21.6922  22.4698  23.0557  23.4177  23.7322  24.5665
    25.5483  25.6850  28.8022  29.1852  29.2382  29.3101

          k = 0.3750 0.2165 0.6124 (  1580 PWs)   bands (ev):

   -17.6821 -17.6784 -17.6738 -17.6714 -17.6709  -3.6646  -0.9245   2.0926
     4.2482   4.5741  10.5157  10.9048  11.7593  13.5575  15.9584  17.0316
    19.2492  20.1348  21.5196  22.4373  22.9925  23.3568  23.6931  24.2649
    25.2507  25.9970  28.5623  29.0154  29.6050  29.6996

     Writing output data file ./out/gete.save/

     init_run     :      0.14s CPU      0.14s WALL (       1 calls)
     electrons    :     57.58s CPU     59.98s WALL (       1 calls)

     Called by init_run:
     wfcinit      :      0.00s CPU      0.00s WALL (       1 calls)
     wfcinit:atom :      0.01s CPU      0.01s WALL (     201 calls)
     wfcinit:wfcr :      1.28s CPU      1.38s WALL (     201 calls)
     potinit      :      0.01s CPU      0.01s WALL (       1 calls)
     hinit0       :      0.08s CPU      0.08s WALL (       1 calls)

     Called by electrons:
     c_bands      :     57.58s CPU     59.98s WALL (       1 calls)
     v_of_rho     :      0.01s CPU      0.01s WALL (       1 calls)
     v_h          :      0.00s CPU      0.00s WALL (       1 calls)
     v_xc         :      0.01s CPU      0.01s WALL (       1 calls)
     newd         :      0.02s CPU      0.02s WALL (       1 calls)

     Called by c_bands:
     init_us_2    :      0.01s CPU      0.01s WALL (     201 calls)
     cegterg      :     56.17s CPU     58.46s WALL (     659 calls)

     Called by sum_band:

     Called by *egterg:
     cdiaghg      :      9.45s CPU      9.83s WALL (   11452 calls)
     cegterg:over :      6.07s CPU      6.35s WALL (   11251 calls)
     cegterg:upda :      3.19s CPU      3.26s WALL (   11251 calls)
     cegterg:last :      8.97s CPU      9.14s WALL (    5284 calls)
     cdiaghg:chol :      0.50s CPU      0.52s WALL (   11452 calls)
     cdiaghg:inve :      0.09s CPU      0.09s WALL (   11452 calls)
     cdiaghg:para :      1.90s CPU      1.98s WALL (   22904 calls)
     h_psi        :     26.96s CPU     28.31s WALL (   12111 calls)
     s_psi        :      1.75s CPU      1.85s WALL (   12111 calls)
     g_psi        :      0.27s CPU      0.28s WALL (   11251 calls)

     Called by h_psi:
     h_psi:calbec :      1.79s CPU      1.91s WALL (   12111 calls)
     vloc_psi     :     23.37s CPU     24.48s WALL (   12111 calls)
     add_vuspsi   :      1.73s CPU      1.85s WALL (   12111 calls)

     General routines
     calbec       :      1.78s CPU      1.91s WALL (   12111 calls)
     fft          :      0.00s CPU      0.00s WALL (      13 calls)
     ffts         :      0.00s CPU      0.00s WALL (       1 calls)
     fftw         :     21.11s CPU     22.11s WALL (  322764 calls)
     interpolate  :      0.00s CPU      0.00s WALL (       1 calls)
     davcio       :      0.01s CPU      0.02s WALL (     402 calls)

     Parallel routines
     fft_scatt_xy :      1.81s CPU      1.89s WALL (  322778 calls)
     fft_scatt_yz :      4.59s CPU      4.86s WALL (  322778 calls)

     PWSCF        :   1m 2.82s CPU   1m 5.37s WALL


   This run was terminated on:  18:16:47   1Jan2023            

=------------------------------------------------------------------------------=
   JOB DONE.
=------------------------------------------------------------------------------=
