
     Program BANDS v.6.7MaX starts on  1Jan2023 at 18:16:47 

     This program is part of the open-source Quantum ESPRESSO suite
     for quantum simulation of materials; please cite
         "P. Giannozzi et al., J. Phys.:Condens. Matter 21 395502 (2009);
         "P. Giannozzi et al., J. Phys.:Condens. Matter 29 465901 (2017);
          URL http://www.quantum-espresso.org", 
     in publications or presentations arising from this work. More details at
     http://www.quantum-espresso.org/quote

     Parallel version (MPI), running on     4 processors

     MPI processes distributed on     1 nodes
     R & G space division:  proc/nbgrp/npool/nimage =       4

     Reading xml data from directory:

     ./out/gete.save/

     IMPORTANT: XC functional enforced from input :
     Exchange-correlation= PBESOL
                           (   1   4  10   8   0   0   0)
     Any further DFT definition will be discarded
     Please, verify this is what you really want


     Parallelization info
     --------------------
     sticks:   dense  smooth     PW     G-vecs:    dense   smooth      PW
     Min         354     180     52                 8906     3156     520
     Max         355     181     53                 8910     3157     522
     Sum        1417     721    211                35629    12627    2085

     Reading collected, re-writing distributed wavefunctions
     high-symmetry point:  0.5000-0.0000 0.6124   x coordinate   0.0000
     high-symmetry point:  0.5000 0.2887 0.2041   x coordinate   0.5000
     high-symmetry point:  0.6250-0.0722 0.4082   x coordinate   0.9330
     high-symmetry point:  0.5000-0.2887 0.4082   x coordinate   1.1830
     high-symmetry point:  0.0000 0.0000 0.0000   x coordinate   1.8901
     high-symmetry point:  0.3750 0.2165 0.6124   x coordinate   2.6401

     Plottable bands (eV) written to file gete.bands.gnu
     Bands written to file gete.bands

 **************************************************************************

                    xk=(   0.50000,  -0.00000,   0.61237  )

     point group C_2  (2)   
     there are  2 classes
     the character table:

       E     C2   
A      1.00  1.00
B      1.00 -1.00

     the symmetry operations in each class and the name of the first element:

     E        1
                                                                 
     C2       2
                                                                 

     Band symmetry, C_2  (2)    point group:

     e(  1 -  1) =    -17.68184  eV     1   --> B              
     e(  2 -  2) =    -17.67874  eV     1   --> A              
     e(  3 -  3) =    -17.67285  eV     1   --> A              
     e(  4 -  4) =    -17.67270  eV     1   --> B              
     e(  5 -  5) =    -17.67056  eV     1   --> A              
     e(  6 -  6) =     -3.58552  eV     1   --> B              
     e(  7 -  7) =     -0.92200  eV     1   --> A              
     e(  8 -  9) =      2.48123  eV     2   --> A              
     e(  8 -  9) =      2.48123  eV     2   --> B              
     e( 10 - 10) =      6.78663  eV     1   --> A              
     e( 11 - 11) =      8.12896  eV     1   --> B              
     e( 12 - 13) =     12.82798  eV     2   --> A              
     e( 12 - 13) =     12.82798  eV     2   --> B              
     e( 14 - 15) =     13.48273  eV     2   --> A              
     e( 14 - 15) =     13.48273  eV     2   --> B              
     e( 16 - 16) =     18.94229  eV     1   --> A              
     e( 17 - 17) =     19.12823  eV     1   --> B              
     e( 18 - 18) =     20.45899  eV     1   --> B              
     e( 19 - 19) =     21.14185  eV     1   --> B              
     e( 20 - 20) =     21.14196  eV     1   --> A              
     e( 21 - 21) =     21.32274  eV     1   --> A              
     e( 22 - 22) =     24.56840  eV     1   --> B              
     e( 23 - 23) =     24.87517  eV     1   --> A              
     e( 24 - 25) =     25.55641  eV     2   --> A              
     e( 24 - 25) =     25.55641  eV     2   --> B              
     e( 26 - 26) =     28.05577  eV     1   --> A              
     e( 27 - 27) =     28.15711  eV     1   --> B              
     e( 28 - 29) =     29.38046  eV     2   --> A              
     e( 28 - 29) =     29.38046  eV     2   --> B              
     e( 30 - 30) =     29.93784  eV     1   --> A              

 **************************************************************************

 **************************************************************************

                    xk=(   0.50000,   0.00577,   0.60421  )

     point group C_1 (1)    
     there are  1 classes
     the character table:

       E    
A      1.00

     the symmetry operations in each class and the name of the first element:

     E        1
                                                                 

     Band symmetry, C_1 (1)     point group:

     e(  1 -  1) =    -17.68184  eV     1   --> A              
     e(  2 -  2) =    -17.67874  eV     1   --> A              
     e(  3 -  3) =    -17.67285  eV     1   --> A              
     e(  4 -  4) =    -17.67270  eV     1   --> A              
     e(  5 -  5) =    -17.67056  eV     1   --> A              
     e(  6 -  6) =     -3.58605  eV     1   --> A              
     e(  7 -  7) =     -0.92324  eV     1   --> A              
     e(  8 -  8) =      2.48338  eV     1   --> A              
     e(  9 -  9) =      2.48399  eV     1   --> A              
     e( 10 - 10) =      6.78617  eV     1   --> A              
     e( 11 - 11) =      8.12826  eV     1   --> A              
     e( 12 - 12) =     12.82746  eV     1   --> A              
     e( 13 - 13) =     12.82854  eV     1   --> A              
     e( 14 - 14) =     13.47919  eV     1   --> A              
     e( 15 - 15) =     13.48022  eV     1   --> A              
     e( 16 - 16) =     18.94489  eV     1   --> A              
     e( 17 - 17) =     19.13092  eV     1   --> A              
     e( 18 - 18) =     20.42419  eV     1   --> A              
     e( 19 - 19) =     21.05084  eV     1   --> A              
     e( 20 - 20) =     21.18235  eV     1   --> A              
     e( 21 - 21) =     21.41909  eV     1   --> A              
     e( 22 - 22) =     24.56020  eV     1   --> A              
     e( 23 - 23) =     24.85989  eV     1   --> A              
     e( 24 - 24) =     25.55712  eV     1   --> A              
     e( 25 - 25) =     25.56378  eV     1   --> A              
     e( 26 - 26) =     28.06009  eV     1   --> A              
     e( 27 - 27) =     28.16134  eV     1   --> A              
     e( 28 - 28) =     29.38135  eV     1   --> A              
     e( 29 - 29) =     29.38193  eV     1   --> A              
     e( 30 - 30) =     29.89735  eV     1   --> A              

 **************************************************************************

 **************************************************************************

                    xk=(   0.50000,   0.01155,   0.59604  )

     Band symmetry, C_1 (1)     point group:

     e(  1 -  1) =    -17.68183  eV     1   --> A              
     e(  2 -  2) =    -17.67874  eV     1   --> A              
     e(  3 -  3) =    -17.67284  eV     1   --> A              
     e(  4 -  4) =    -17.67271  eV     1   --> A              
     e(  5 -  5) =    -17.67056  eV     1   --> A              
     e(  6 -  6) =     -3.58767  eV     1   --> A              
     e(  7 -  7) =     -0.92692  eV     1   --> A              
     e(  8 -  8) =      2.48958  eV     1   --> A              
     e(  9 -  9) =      2.49226  eV     1   --> A              
     e( 10 - 10) =      6.78478  eV     1   --> A              
     e( 11 - 11) =      8.12615  eV     1   --> A              
     e( 12 - 12) =     12.82568  eV     1   --> A              
     e( 13 - 13) =     12.82996  eV     1   --> A              
     e( 14 - 14) =     13.46873  eV     1   --> A              
     e( 15 - 15) =     13.47266  eV     1   --> A              
     e( 16 - 16) =     18.95249  eV     1   --> A              
     e( 17 - 17) =     19.13883  eV     1   --> A              
     e( 18 - 18) =     20.33756  eV     1   --> A              
     e( 19 - 19) =     20.91000  eV     1   --> A              
     e( 20 - 20) =     21.28571  eV     1   --> A              
     e( 21 - 21) =     21.57596  eV     1   --> A              
     e( 22 - 22) =     24.53583  eV     1   --> A              
     e( 23 - 23) =     24.81625  eV     1   --> A              
     e( 24 - 24) =     25.55903  eV     1   --> A              
     e( 25 - 25) =     25.58368  eV     1   --> A              
     e( 26 - 26) =     28.07295  eV     1   --> A              
     e( 27 - 27) =     28.17390  eV     1   --> A              
     e( 28 - 28) =     29.38301  eV     1   --> A              
     e( 29 - 29) =     29.38565  eV     1   --> A              
     e( 30 - 30) =     29.80366  eV     1   --> A              

 **************************************************************************

 **************************************************************************

                    xk=(   0.50000,   0.01732,   0.58788  )

     Band symmetry, C_1 (1)     point group:

     e(  1 -  1) =    -17.68182  eV     1   --> A              
     e(  2 -  2) =    -17.67875  eV     1   --> A              
     e(  3 -  3) =    -17.67284  eV     1   --> A              
     e(  4 -  4) =    -17.67271  eV     1   --> A              
     e(  5 -  5) =    -17.67057  eV     1   --> A              
     e(  6 -  6) =     -3.59034  eV     1   --> A              
     e(  7 -  7) =     -0.93302  eV     1   --> A              
     e(  8 -  8) =      2.49990  eV     1   --> A              
     e(  9 -  9) =      2.50598  eV     1   --> A              
     e( 10 - 10) =      6.78248  eV     1   --> A              
     e( 11 - 11) =      8.12267  eV     1   --> A              
     e( 12 - 12) =     12.82192  eV     1   --> A              
     e( 13 - 13) =     12.83182  eV     1   --> A              
     e( 14 - 14) =     13.45194  eV     1   --> A              
     e( 15 - 15) =     13.46097  eV     1   --> A              
     e( 16 - 16) =     18.96481  eV     1   --> A              
     e( 17 - 17) =     19.15147  eV     1   --> A              
     e( 18 - 18) =     20.22662  eV     1   --> A              
     e( 19 - 19) =     20.76806  eV     1   --> A              
     e( 20 - 20) =     21.42489  eV     1   --> A              
     e( 21 - 21) =     21.74479  eV     1   --> A              
     e( 22 - 22) =     24.49612  eV     1   --> A              
     e( 23 - 23) =     24.74926  eV     1   --> A              
     e( 24 - 24) =     25.56167  eV     1   --> A              
     e( 25 - 25) =     25.61138  eV     1   --> A              
     e( 26 - 26) =     28.09424  eV     1   --> A              
     e( 27 - 27) =     28.19450  eV     1   --> A              
     e( 28 - 28) =     29.38161  eV     1   --> A              
     e( 29 - 29) =     29.38863  eV     1   --> A              
     e( 30 - 30) =     29.69384  eV     1   --> A              

 **************************************************************************

 **************************************************************************

                    xk=(   0.50000,   0.02309,   0.57971  )

     Band symmetry, C_1 (1)     point group:

     e(  1 -  1) =    -17.68181  eV     1   --> A              
     e(  2 -  2) =    -17.67875  eV     1   --> A              
     e(  3 -  3) =    -17.67283  eV     1   --> A              
     e(  4 -  4) =    -17.67271  eV     1   --> A              
     e(  5 -  5) =    -17.67059  eV     1   --> A              
     e(  6 -  6) =     -3.59407  eV     1   --> A              
     e(  7 -  7) =     -0.94146  eV     1   --> A              
     e(  8 -  8) =      2.51433  eV     1   --> A              
     e(  9 -  9) =      2.52510  eV     1   --> A              
     e( 10 - 10) =      6.77928  eV     1   --> A              
     e( 11 - 11) =      8.11783  eV     1   --> A              
     e( 12 - 12) =     12.81498  eV     1   --> A              
     e( 13 - 13) =     12.83326  eV     1   --> A              
     e( 14 - 14) =     13.42986  eV     1   --> A              
     e( 15 - 15) =     13.44654  eV     1   --> A              
     e( 16 - 16) =     18.98130  eV     1   --> A              
     e( 17 - 17) =     19.16790  eV     1   --> A              
     e( 18 - 18) =     20.10786  eV     1   --> A              
     e( 19 - 19) =     20.63073  eV     1   --> A              
     e( 20 - 20) =     21.58408  eV     1   --> A              
     e( 21 - 21) =     21.92020  eV     1   --> A              
     e( 22 - 22) =     24.44222  eV     1   --> A              
     e( 23 - 23) =     24.66417  eV     1   --> A              
     e( 24 - 24) =     25.56441  eV     1   --> A              
     e( 25 - 25) =     25.64206  eV     1   --> A              
     e( 26 - 26) =     28.12372  eV     1   --> A              
     e( 27 - 27) =     28.22266  eV     1   --> A              
     e( 28 - 28) =     29.36513  eV     1   --> A              
     e( 29 - 29) =     29.38051  eV     1   --> A              
     e( 30 - 30) =     29.59356  eV     1   --> A              

 **************************************************************************

 **************************************************************************

                    xk=(   0.50000,   0.02887,   0.57155  )

     Band symmetry, C_1 (1)     point group:

     e(  1 -  1) =    -17.68179  eV     1   --> A              
     e(  2 -  2) =    -17.67876  eV     1   --> A              
     e(  3 -  3) =    -17.67283  eV     1   --> A              
     e(  4 -  4) =    -17.67271  eV     1   --> A              
     e(  5 -  5) =    -17.67060  eV     1   --> A              
     e(  6 -  6) =     -3.59882  eV     1   --> A              
     e(  7 -  7) =     -0.95215  eV     1   --> A              
     e(  8 -  8) =      2.53284  eV     1   --> A              
     e(  9 -  9) =      2.54950  eV     1   --> A              
     e( 10 - 10) =      6.77520  eV     1   --> A              
     e( 11 - 11) =      8.11166  eV     1   --> A              
     e( 12 - 12) =     12.80318  eV     1   --> A              
     e( 13 - 13) =     12.83292  eV     1   --> A              
     e( 14 - 14) =     13.40409  eV     1   --> A              
     e( 15 - 15) =     13.43133  eV     1   --> A              
     e( 16 - 16) =     19.00112  eV     1   --> A              
     e( 17 - 17) =     19.18644  eV     1   --> A              
     e( 18 - 18) =     19.99006  eV     1   --> A              
     e( 19 - 19) =     20.49989  eV     1   --> A              
     e( 20 - 20) =     21.75580  eV     1   --> A              
     e( 21 - 21) =     22.10081  eV     1   --> A              
     e( 22 - 22) =     24.37551  eV     1   --> A              
     e( 23 - 23) =     24.56516  eV     1   --> A              
     e( 24 - 24) =     25.56660  eV     1   --> A              
     e( 25 - 25) =     25.67215  eV     1   --> A              
     e( 26 - 26) =     28.16106  eV     1   --> A              
     e( 27 - 27) =     28.25765  eV     1   --> A              
     e( 28 - 28) =     29.31023  eV     1   --> A              
     e( 29 - 29) =     29.33435  eV     1   --> A              
     e( 30 - 30) =     29.53563  eV     1   --> A              

 **************************************************************************

 **************************************************************************

                    xk=(   0.50000,   0.03464,   0.56338  )

     Band symmetry, C_1 (1)     point group:

     e(  1 -  1) =    -17.68177  eV     1   --> A              
     e(  2 -  2) =    -17.67878  eV     1   --> A              
     e(  3 -  3) =    -17.67282  eV     1   --> A              
     e(  4 -  4) =    -17.67271  eV     1   --> A              
     e(  5 -  5) =    -17.67062  eV     1   --> A              
     e(  6 -  6) =     -3.60456  eV     1   --> A              
     e(  7 -  7) =     -0.96497  eV     1   --> A              
     e(  8 -  8) =      2.55539  eV     1   --> A              
     e(  9 -  9) =      2.57909  eV     1   --> A              
     e( 10 - 10) =      6.77027  eV     1   --> A              
     e( 11 - 11) =      8.10422  eV     1   --> A              
     e( 12 - 12) =     12.78440  eV     1   --> A              
     e( 13 - 13) =     12.82877  eV     1   --> A              
     e( 14 - 14) =     13.37695  eV     1   --> A              
     e( 15 - 15) =     13.41777  eV     1   --> A              
     e( 16 - 16) =     19.02308  eV     1   --> A              
     e( 17 - 17) =     19.20412  eV     1   --> A              
     e( 18 - 18) =     19.87940  eV     1   --> A              
     e( 19 - 19) =     20.37696  eV     1   --> A              
     e( 20 - 20) =     21.93637  eV     1   --> A              
     e( 21 - 21) =     22.28601  eV     1   --> A              
     e( 22 - 22) =     24.29736  eV     1   --> A              
     e( 23 - 23) =     24.45525  eV     1   --> A              
     e( 24 - 24) =     25.56769  eV     1   --> A              
     e( 25 - 25) =     25.69938  eV     1   --> A              
     e( 26 - 26) =     28.20580  eV     1   --> A              
     e( 27 - 27) =     28.29847  eV     1   --> A              
     e( 28 - 28) =     29.21713  eV     1   --> A              
     e( 29 - 29) =     29.24328  eV     1   --> A              
     e( 30 - 30) =     29.52925  eV     1   --> A              

 **************************************************************************

 **************************************************************************

                    xk=(   0.50000,   0.04041,   0.55522  )

     Band symmetry, C_1 (1)     point group:

     e(  1 -  1) =    -17.68175  eV     1   --> A              
     e(  2 -  2) =    -17.67879  eV     1   --> A              
     e(  3 -  4) =    -17.67281  eV     2   -->   2 A              
     e(  5 -  5) =    -17.67064  eV     1   --> A              
     e(  6 -  6) =     -3.61127  eV     1   --> A              
     e(  7 -  7) =     -0.97980  eV     1   --> A              
     e(  8 -  8) =      2.58194  eV     1   --> A              
     e(  9 -  9) =      2.61371  eV     1   --> A              
     e( 10 - 10) =      6.76453  eV     1   --> A              
     e( 11 - 11) =      8.09554  eV     1   --> A              
     e( 12 - 12) =     12.75641  eV     1   --> A              
     e( 13 - 13) =     12.81808  eV     1   --> A              
     e( 14 - 14) =     13.35154  eV     1   --> A              
     e( 15 - 15) =     13.40842  eV     1   --> A              
     e( 16 - 16) =     19.04550  eV     1   --> A              
     e( 17 - 17) =     19.21563  eV     1   --> A              
     e( 18 - 18) =     19.78267  eV     1   --> A              
     e( 19 - 19) =     20.26354  eV     1   --> A              
     e( 20 - 20) =     22.12376  eV     1   --> A              
     e( 21 - 21) =     22.47538  eV     1   --> A              
     e( 22 - 22) =     24.20914  eV     1   --> A              
     e( 23 - 23) =     24.33661  eV     1   --> A              
     e( 24 - 24) =     25.56731  eV     1   --> A              
     e( 25 - 25) =     25.72247  eV     1   --> A              
     e( 26 - 26) =     28.25733  eV     1   --> A              
     e( 27 - 27) =     28.34360  eV     1   --> A              
     e( 28 - 28) =     29.11045  eV     1   --> A              
     e( 29 - 29) =     29.13533  eV     1   --> A              
     e( 30 - 30) =     29.54744  eV     1   --> A              

 **************************************************************************

 **************************************************************************

                    xk=(   0.50000,   0.04619,   0.54705  )

     Band symmetry, C_1 (1)     point group:

     e(  1 -  1) =    -17.68173  eV     1   --> A              
     e(  2 -  2) =    -17.67881  eV     1   --> A              
     e(  3 -  4) =    -17.67279  eV     2   -->   2 A              
     e(  5 -  5) =    -17.67067  eV     1   --> A              
     e(  6 -  6) =     -3.61889  eV     1   --> A              
     e(  7 -  7) =     -0.99648  eV     1   --> A              
     e(  8 -  8) =      2.61246  eV     1   --> A              
     e(  9 -  9) =      2.65322  eV     1   --> A              
     e( 10 - 10) =      6.75799  eV     1   --> A              
     e( 11 - 11) =      8.08570  eV     1   --> A              
     e( 12 - 12) =     12.71733  eV     1   --> A              
     e( 13 - 13) =     12.79760  eV     1   --> A              
     e( 14 - 14) =     13.33147  eV     1   --> A              
     e( 15 - 15) =     13.40559  eV     1   --> A              
     e( 16 - 16) =     19.06607  eV     1   --> A              
     e( 17 - 17) =     19.21235  eV     1   --> A              
     e( 18 - 18) =     19.70908  eV     1   --> A              
     e( 19 - 19) =     20.16169  eV     1   --> A              
     e( 20 - 20) =     22.31670  eV     1   --> A              
     e( 21 - 21) =     22.66861  eV     1   --> A              
     e( 22 - 22) =     24.11212  eV     1   --> A              
     e( 23 - 23) =     24.21085  eV     1   --> A              
     e( 24 - 24) =     25.56528  eV     1   --> A              
     e( 25 - 25) =     25.74086  eV     1   --> A              
     e( 26 - 26) =     28.31483  eV     1   --> A              
     e( 27 - 27) =     28.39050  eV     1   --> A              
     e( 28 - 28) =     29.00471  eV     1   --> A              
     e( 29 - 29) =     29.02503  eV     1   --> A              
     e( 30 - 30) =     29.57618  eV     1   --> A              

 **************************************************************************

 **************************************************************************

                    xk=(   0.50000,   0.05196,   0.53889  )

     Band symmetry, C_1 (1)     point group:

     e(  1 -  1) =    -17.68170  eV     1   --> A              
     e(  2 -  2) =    -17.67883  eV     1   --> A              
     e(  3 -  4) =    -17.67278  eV     2   -->   2 A              
     e(  5 -  5) =    -17.67070  eV     1   --> A              
     e(  6 -  6) =     -3.62739  eV     1   --> A              
     e(  7 -  7) =     -1.01486  eV     1   --> A              
     e(  8 -  8) =      2.64689  eV     1   --> A              
     e(  9 -  9) =      2.69746  eV     1   --> A              
     e( 10 - 10) =      6.75072  eV     1   --> A              
     e( 11 - 11) =      8.07476  eV     1   --> A              
     e( 12 - 12) =     12.66604  eV     1   --> A              
     e( 13 - 13) =     12.76437  eV     1   --> A              
     e( 14 - 14) =     13.32011  eV     1   --> A              
     e( 15 - 15) =     13.41081  eV     1   --> A              
     e( 16 - 16) =     19.08173  eV     1   --> A              
     e( 17 - 17) =     19.18452  eV     1   --> A              
     e( 18 - 18) =     19.66858  eV     1   --> A              
     e( 19 - 19) =     20.07419  eV     1   --> A              
     e( 20 - 20) =     22.51423  eV     1   --> A              
     e( 21 - 21) =     22.86536  eV     1   --> A              
     e( 22 - 22) =     24.00751  eV     1   --> A              
     e( 23 - 23) =     24.07924  eV     1   --> A              
     e( 24 - 24) =     25.56158  eV     1   --> A              
     e( 25 - 25) =     25.75443  eV     1   --> A              
     e( 26 - 26) =     28.37699  eV     1   --> A              
     e( 27 - 27) =     28.43417  eV     1   --> A              
     e( 28 - 28) =     28.90869  eV     1   --> A              
     e( 29 - 29) =     28.91750  eV     1   --> A              
     e( 30 - 30) =     29.61093  eV     1   --> A              

 **************************************************************************

 **************************************************************************

                    xk=(   0.50000,   0.05774,   0.53072  )

     Band symmetry, C_1 (1)     point group:

     e(  1 -  1) =    -17.68166  eV     1   --> A              
     e(  2 -  2) =    -17.67885  eV     1   --> A              
     e(  3 -  4) =    -17.67276  eV     2   -->   2 A              
     e(  5 -  5) =    -17.67073  eV     1   --> A              
     e(  6 -  6) =     -3.63671  eV     1   --> A              
     e(  7 -  7) =     -1.03477  eV     1   --> A              
     e(  8 -  8) =      2.68517  eV     1   --> A              
     e(  9 -  9) =      2.74625  eV     1   --> A              
     e( 10 - 10) =      6.74275  eV     1   --> A              
     e( 11 - 11) =      8.06280  eV     1   --> A              
     e( 12 - 12) =     12.60235  eV     1   --> A              
     e( 13 - 13) =     12.71666  eV     1   --> A              
     e( 14 - 14) =     13.31959  eV     1   --> A              
     e( 15 - 15) =     13.42468  eV     1   --> A              
     e( 16 - 16) =     19.08872  eV     1   --> A              
     e( 17 - 17) =     19.12935  eV     1   --> A              
     e( 18 - 18) =     19.66389  eV     1   --> A              
     e( 19 - 19) =     20.00442  eV     1   --> A              
     e( 20 - 20) =     22.71549  eV     1   --> A              
     e( 21 - 21) =     23.06518  eV     1   --> A              
     e( 22 - 22) =     23.89650  eV     1   --> A              
     e( 23 - 23) =     23.94289  eV     1   --> A              
     e( 24 - 24) =     25.55639  eV     1   --> A              
     e( 25 - 25) =     25.76339  eV     1   --> A              
     e( 26 - 26) =     28.44114  eV     1   --> A              
     e( 27 - 27) =     28.46371  eV     1   --> A              
     e( 28 - 28) =     28.81634  eV     1   --> A              
     e( 29 - 29) =     28.83435  eV     1   --> A              
     e( 30 - 30) =     29.64759  eV     1   --> A              

 **************************************************************************

 **************************************************************************

                    xk=(   0.50000,   0.06351,   0.52256  )

     Band symmetry, C_1 (1)     point group:

     e(  1 -  1) =    -17.68163  eV     1   --> A              
     e(  2 -  2) =    -17.67887  eV     1   --> A              
     e(  3 -  4) =    -17.67275  eV     2   -->   2 A              
     e(  5 -  5) =    -17.67076  eV     1   --> A              
     e(  6 -  6) =     -3.64681  eV     1   --> A              
     e(  7 -  7) =     -1.05605  eV     1   --> A              
     e(  8 -  8) =      2.72724  eV     1   --> A              
     e(  9 -  9) =      2.79941  eV     1   --> A              
     e( 10 - 10) =      6.73413  eV     1   --> A              
     e( 11 - 11) =      8.04987  eV     1   --> A              
     e( 12 - 12) =     12.52688  eV     1   --> A              
     e( 13 - 13) =     12.65449  eV     1   --> A              
     e( 14 - 14) =     13.33031  eV     1   --> A              
     e( 15 - 15) =     13.44704  eV     1   --> A              
     e( 16 - 16) =     19.05394  eV     1   --> A              
     e( 17 - 17) =     19.08316  eV     1   --> A              
     e( 18 - 18) =     19.68765  eV     1   --> A              
     e( 19 - 19) =     19.95584  eV     1   --> A              
     e( 20 - 20) =     22.91938  eV     1   --> A              
     e( 21 - 21) =     23.26724  eV     1   --> A              
     e( 22 - 22) =     23.78044  eV     1   --> A              
     e( 23 - 23) =     23.80315  eV     1   --> A              
     e( 24 - 24) =     25.55000  eV     1   --> A              
     e( 25 - 25) =     25.76813  eV     1   --> A              
     e( 26 - 26) =     28.46011  eV     1   --> A              
     e( 27 - 27) =     28.49863  eV     1   --> A              
     e( 28 - 28) =     28.73014  eV     1   --> A              
     e( 29 - 29) =     28.80079  eV     1   --> A              
     e( 30 - 30) =     29.68702  eV     1   --> A              

 **************************************************************************

 **************************************************************************

                    xk=(   0.50000,   0.06928,   0.51439  )

     Band symmetry, C_1 (1)     point group:

     e(  1 -  1) =    -17.68159  eV     1   --> A              
     e(  2 -  2) =    -17.67889  eV     1   --> A              
     e(  3 -  4) =    -17.67273  eV     2   -->   2 A              
     e(  5 -  5) =    -17.67079  eV     1   --> A              
     e(  6 -  6) =     -3.65763  eV     1   --> A              
     e(  7 -  7) =     -1.07854  eV     1   --> A              
     e(  8 -  8) =      2.77304  eV     1   --> A              
     e(  9 -  9) =      2.85678  eV     1   --> A              
     e( 10 - 10) =      6.72492  eV     1   --> A              
     e( 11 - 11) =      8.03608  eV     1   --> A              
     e( 12 - 12) =     12.44067  eV     1   --> A              
     e( 13 - 13) =     12.57916  eV     1   --> A              
     e( 14 - 14) =     13.35137  eV     1   --> A              
     e( 15 - 15) =     13.47727  eV     1   --> A              
     e( 16 - 16) =     18.96755  eV     1   --> A              
     e( 17 - 17) =     19.06230  eV     1   --> A              
     e( 18 - 18) =     19.73026  eV     1   --> A              
     e( 19 - 19) =     19.93079  eV     1   --> A              
     e( 20 - 20) =     23.12373  eV     1   --> A              
     e( 21 - 21) =     23.46695  eV     1   --> A              
     e( 22 - 22) =     23.66173  eV     1   --> A              
     e( 23 - 23) =     23.66496  eV     1   --> A              
     e( 24 - 24) =     25.54289  eV     1   --> A              
     e( 25 - 25) =     25.76924  eV     1   --> A              
     e( 26 - 26) =     28.41453  eV     1   --> A              
     e( 27 - 27) =     28.51426  eV     1   --> A              
     e( 28 - 28) =     28.69369  eV     1   --> A              
     e( 29 - 29) =     28.81648  eV     1   --> A              
     e( 30 - 30) =     29.72860  eV     1   --> A              

 **************************************************************************

 **************************************************************************

                    xk=(   0.50000,   0.07506,   0.50623  )

     Band symmetry, C_1 (1)     point group:

     e(  1 -  1) =    -17.68155  eV     1   --> A              
     e(  2 -  2) =    -17.67892  eV     1   --> A              
     e(  3 -  4) =    -17.67273  eV     2   -->   2 A              
     e(  5 -  5) =    -17.67083  eV     1   --> A              
     e(  6 -  6) =     -3.66910  eV     1   --> A              
     e(  7 -  7) =     -1.10205  eV     1   --> A              
     e(  8 -  8) =      2.82250  eV     1   --> A              
     e(  9 -  9) =      2.91816  eV     1   --> A              
     e( 10 - 10) =      6.71517  eV     1   --> A              
     e( 11 - 11) =      8.02150  eV     1   --> A              
     e( 12 - 12) =     12.34492  eV     1   --> A              
     e( 13 - 13) =     12.49249  eV     1   --> A              
     e( 14 - 14) =     13.38137  eV     1   --> A              
     e( 15 - 15) =     13.51461  eV     1   --> A              
     e( 16 - 16) =     18.87652  eV     1   --> A              
     e( 17 - 17) =     19.02576  eV     1   --> A              
     e( 18 - 18) =     19.78498  eV     1   --> A              
     e( 19 - 19) =     19.92916  eV     1   --> A              
     e( 20 - 20) =     23.31740  eV     1   --> A              
     e( 21 - 21) =     23.49792  eV     1   --> A              
     e( 22 - 22) =     23.55154  eV     1   --> A              
     e( 23 - 23) =     23.69490  eV     1   --> A              
     e( 24 - 24) =     25.53569  eV     1   --> A              
     e( 25 - 25) =     25.76743  eV     1   --> A              
     e( 26 - 26) =     28.34274  eV     1   --> A              
     e( 27 - 27) =     28.45855  eV     1   --> A              
     e( 28 - 28) =     28.73583  eV     1   --> A              
     e( 29 - 29) =     28.86510  eV     1   --> A              
     e( 30 - 30) =     29.77143  eV     1   --> A              

 **************************************************************************

 **************************************************************************

                    xk=(   0.50000,   0.08083,   0.49806  )

     Band symmetry, C_1 (1)     point group:

     e(  1 -  1) =    -17.68151  eV     1   --> A              
     e(  2 -  2) =    -17.67895  eV     1   --> A              
     e(  3 -  4) =    -17.67273  eV     2   -->   2 A              
     e(  5 -  5) =    -17.67087  eV     1   --> A              
     e(  6 -  6) =     -3.68117  eV     1   --> A              
     e(  7 -  7) =     -1.12644  eV     1   --> A              
     e(  8 -  8) =      2.87555  eV     1   --> A              
     e(  9 -  9) =      2.98339  eV     1   --> A              
     e( 10 - 10) =      6.70494  eV     1   --> A              
     e( 11 - 11) =      8.00621  eV     1   --> A              
     e( 12 - 12) =     12.24078  eV     1   --> A              
     e( 13 - 13) =     12.39624  eV     1   --> A              
     e( 14 - 14) =     13.41894  eV     1   --> A              
     e( 15 - 15) =     13.55830  eV     1   --> A              
     e( 16 - 16) =     18.78438  eV     1   --> A              
     e( 17 - 17) =     18.97567  eV     1   --> A              
     e( 18 - 18) =     19.84779  eV     1   --> A              
     e( 19 - 19) =     19.94835  eV     1   --> A              
     e( 20 - 20) =     23.35493  eV     1   --> A              
     e( 21 - 21) =     23.36386  eV     1   --> A              
     e( 22 - 22) =     23.58622  eV     1   --> A              
     e( 23 - 23) =     23.89823  eV     1   --> A              
     e( 24 - 24) =     25.52929  eV     1   --> A              
     e( 25 - 25) =     25.76357  eV     1   --> A              
     e( 26 - 26) =     28.26077  eV     1   --> A              
     e( 27 - 27) =     28.37747  eV     1   --> A              
     e( 28 - 28) =     28.80981  eV     1   --> A              
     e( 29 - 29) =     28.92987  eV     1   --> A              
     e( 30 - 30) =     29.81465  eV     1   --> A              

 **************************************************************************

 **************************************************************************

                    xk=(   0.50000,   0.08660,   0.48990  )

     Band symmetry, C_1 (1)     point group:

     e(  1 -  1) =    -17.68146  eV     1   --> A              
     e(  2 -  2) =    -17.67898  eV     1   --> A              
     e(  3 -  4) =    -17.67274  eV     2   -->   2 A              
     e(  5 -  5) =    -17.67091  eV     1   --> A              
     e(  6 -  6) =     -3.69377  eV     1   --> A              
     e(  7 -  7) =     -1.15154  eV     1   --> A              
     e(  8 -  8) =      2.93211  eV     1   --> A              
     e(  9 -  9) =      3.05230  eV     1   --> A              
     e( 10 - 10) =      6.69430  eV     1   --> A              
     e( 11 - 11) =      7.99030  eV     1   --> A              
     e( 12 - 12) =     12.12931  eV     1   --> A              
     e( 13 - 13) =     12.29189  eV     1   --> A              
     e( 14 - 14) =     13.46296  eV     1   --> A              
     e( 15 - 15) =     13.60768  eV     1   --> A              
     e( 16 - 16) =     18.69304  eV     1   --> A              
     e( 17 - 17) =     18.91544  eV     1   --> A              
     e( 18 - 18) =     19.91621  eV     1   --> A              
     e( 19 - 19) =     19.98436  eV     1   --> A              
     e( 20 - 20) =     23.20535  eV     1   --> A              
     e( 21 - 21) =     23.24949  eV     1   --> A              
     e( 22 - 22) =     23.77885  eV     1   --> A              
     e( 23 - 23) =     24.10733  eV     1   --> A              
     e( 24 - 24) =     25.52493  eV     1   --> A              
     e( 25 - 25) =     25.75876  eV     1   --> A              
     e( 26 - 26) =     28.17614  eV     1   --> A              
     e( 27 - 27) =     28.29267  eV     1   --> A              
     e( 28 - 28) =     28.89304  eV     1   --> A              
     e( 29 - 29) =     29.00232  eV     1   --> A              
     e( 30 - 30) =     29.85735  eV     1   --> A              

 **************************************************************************

 **************************************************************************

                    xk=(   0.50000,   0.09238,   0.48173  )

     Band symmetry, C_1 (1)     point group:

     e(  1 -  1) =    -17.68141  eV     1   --> A              
     e(  2 -  2) =    -17.67901  eV     1   --> A              
     e(  3 -  3) =    -17.67275  eV     1   --> A              
     e(  4 -  4) =    -17.67265  eV     1   --> A              
     e(  5 -  5) =    -17.67095  eV     1   --> A              
     e(  6 -  6) =     -3.70685  eV     1   --> A              
     e(  7 -  7) =     -1.17720  eV     1   --> A              
     e(  8 -  8) =      2.99209  eV     1   --> A              
     e(  9 -  9) =      3.12471  eV     1   --> A              
     e( 10 - 10) =      6.68330  eV     1   --> A              
     e( 11 - 11) =      7.97385  eV     1   --> A              
     e( 12 - 12) =     12.01144  eV     1   --> A              
     e( 13 - 13) =     12.18065  eV     1   --> A              
     e( 14 - 14) =     13.51258  eV     1   --> A              
     e( 15 - 15) =     13.66219  eV     1   --> A              
     e( 16 - 16) =     18.60356  eV     1   --> A              
     e( 17 - 17) =     18.84856  eV     1   --> A              
     e( 18 - 18) =     19.98858  eV     1   --> A              
     e( 19 - 19) =     20.03314  eV     1   --> A              
     e( 20 - 20) =     23.05415  eV     1   --> A              
     e( 21 - 21) =     23.11907  eV     1   --> A              
     e( 22 - 22) =     23.98357  eV     1   --> A              
     e( 23 - 23) =     24.31661  eV     1   --> A              
     e( 24 - 24) =     25.52441  eV     1   --> A              
     e( 25 - 25) =     25.75447  eV     1   --> A              
     e( 26 - 26) =     28.09200  eV     1   --> A              
     e( 27 - 27) =     28.20882  eV     1   --> A              
     e( 28 - 28) =     28.97973  eV     1   --> A              
     e( 29 - 29) =     29.07805  eV     1   --> A              
     e( 30 - 30) =     29.89865  eV     1   --> A              

 **************************************************************************

 **************************************************************************

                    xk=(   0.50000,   0.09815,   0.47357  )

     Band symmetry, C_1 (1)     point group:

     e(  1 -  1) =    -17.68136  eV     1   --> A              
     e(  2 -  2) =    -17.67904  eV     1   --> A              
     e(  3 -  3) =    -17.67275  eV     1   --> A              
     e(  4 -  4) =    -17.67262  eV     1   --> A              
     e(  5 -  5) =    -17.67100  eV     1   --> A              
     e(  6 -  6) =     -3.72033  eV     1   --> A              
     e(  7 -  7) =     -1.20328  eV     1   --> A              
     e(  8 -  8) =      3.05544  eV     1   --> A              
     e(  9 -  9) =      3.20047  eV     1   --> A              
     e( 10 - 10) =      6.67201  eV     1   --> A              
     e( 11 - 11) =      7.95695  eV     1   --> A              
     e( 12 - 12) =     11.88797  eV     1   --> A              
     e( 13 - 13) =     12.06349  eV     1   --> A              
     e( 14 - 14) =     13.56715  eV     1   --> A              
     e( 15 - 15) =     13.72138  eV     1   --> A              
     e( 16 - 16) =     18.51653  eV     1   --> A              
     e( 17 - 17) =     18.77783  eV     1   --> A              
     e( 18 - 18) =     20.06358  eV     1   --> A              
     e( 19 - 19) =     20.09120  eV     1   --> A              
     e( 20 - 20) =     22.90256  eV     1   --> A              
     e( 21 - 21) =     22.98525  eV     1   --> A              
     e( 22 - 22) =     24.18570  eV     1   --> A              
     e( 23 - 23) =     24.52348  eV     1   --> A              
     e( 24 - 24) =     25.53050  eV     1   --> A              
     e( 25 - 25) =     25.75288  eV     1   --> A              
     e( 26 - 26) =     28.00976  eV     1   --> A              
     e( 27 - 27) =     28.12716  eV     1   --> A              
     e( 28 - 28) =     29.06714  eV     1   --> A              
     e( 29 - 29) =     29.15403  eV     1   --> A              
     e( 30 - 30) =     29.93784  eV     1   --> A              

 **************************************************************************

 **************************************************************************

                    xk=(   0.50000,   0.10392,   0.46540  )

     Band symmetry, C_1 (1)     point group:

     e(  1 -  1) =    -17.68131  eV     1   --> A              
     e(  2 -  2) =    -17.67908  eV     1   --> A              
     e(  3 -  3) =    -17.67276  eV     1   --> A              
     e(  4 -  4) =    -17.67260  eV     1   --> A              
     e(  5 -  5) =    -17.67104  eV     1   --> A              
     e(  6 -  6) =     -3.73415  eV     1   --> A              
     e(  7 -  7) =     -1.22964  eV     1   --> A              
     e(  8 -  8) =      3.12205  eV     1   --> A              
     e(  9 -  9) =      3.27942  eV     1   --> A              
     e( 10 - 10) =      6.66050  eV     1   --> A              
     e( 11 - 11) =      7.93969  eV     1   --> A              
     e( 12 - 12) =     11.75961  eV     1   --> A              
     e( 13 - 13) =     11.94121  eV     1   --> A              
     e( 14 - 14) =     13.62620  eV     1   --> A              
     e( 15 - 15) =     13.78488  eV     1   --> A              
     e( 16 - 16) =     18.43229  eV     1   --> A              
     e( 17 - 17) =     18.70531  eV     1   --> A              
     e( 18 - 18) =     20.14004  eV     1   --> A              
     e( 19 - 19) =     20.15567  eV     1   --> A              
     e( 20 - 20) =     22.75155  eV     1   --> A              
     e( 21 - 21) =     22.85062  eV     1   --> A              
     e( 22 - 22) =     24.37916  eV     1   --> A              
     e( 23 - 23) =     24.72428  eV     1   --> A              
     e( 24 - 24) =     25.54750  eV     1   --> A              
     e( 25 - 25) =     25.75759  eV     1   --> A              
     e( 26 - 26) =     27.93008  eV     1   --> A              
     e( 27 - 27) =     28.04810  eV     1   --> A              
     e( 28 - 28) =     29.15294  eV     1   --> A              
     e( 29 - 29) =     29.22733  eV     1   --> A              
     e( 30 - 30) =     29.97460  eV     1   --> A              

 **************************************************************************

 **************************************************************************

                    xk=(   0.50000,   0.10970,   0.45724  )

     Band symmetry, C_1 (1)     point group:

     e(  1 -  1) =    -17.68126  eV     1   --> A              
     e(  2 -  2) =    -17.67911  eV     1   --> A              
     e(  3 -  3) =    -17.67277  eV     1   --> A              
     e(  4 -  4) =    -17.67257  eV     1   --> A              
     e(  5 -  5) =    -17.67108  eV     1   --> A              
     e(  6 -  6) =     -3.74825  eV     1   --> A              
     e(  7 -  7) =     -1.25616  eV     1   --> A              
     e(  8 -  8) =      3.19186  eV     1   --> A              
     e(  9 -  9) =      3.36141  eV     1   --> A              
     e( 10 - 10) =      6.64883  eV     1   --> A              
     e( 11 - 11) =      7.92215  eV     1   --> A              
     e( 12 - 12) =     11.62697  eV     1   --> A              
     e( 13 - 13) =     11.81445  eV     1   --> A              
     e( 14 - 14) =     13.68935  eV     1   --> A              
     e( 15 - 15) =     13.85236  eV     1   --> A              
     e( 16 - 16) =     18.35102  eV     1   --> A              
     e( 17 - 17) =     18.63245  eV     1   --> A              
     e( 18 - 18) =     20.21673  eV     1   --> A              
     e( 19 - 19) =     20.22413  eV     1   --> A              
     e( 20 - 20) =     22.60218  eV     1   --> A              
     e( 21 - 21) =     22.71676  eV     1   --> A              
     e( 22 - 22) =     24.55669  eV     1   --> A              
     e( 23 - 23) =     24.91270  eV     1   --> A              
     e( 24 - 24) =     25.58198  eV     1   --> A              
     e( 25 - 25) =     25.77480  eV     1   --> A              
     e( 26 - 26) =     27.85330  eV     1   --> A              
     e( 27 - 27) =     27.97171  eV     1   --> A              
     e( 28 - 28) =     29.23429  eV     1   --> A              
     e( 29 - 29) =     29.29439  eV     1   --> A              
     e( 30 - 30) =     30.00953  eV     1   --> A              

 **************************************************************************

 **************************************************************************

                    xk=(   0.50000,   0.11547,   0.44907  )

     Band symmetry, C_1 (1)     point group:

     e(  1 -  1) =    -17.68121  eV     1   --> A              
     e(  2 -  2) =    -17.67915  eV     1   --> A              
     e(  3 -  3) =    -17.67278  eV     1   --> A              
     e(  4 -  4) =    -17.67255  eV     1   --> A              
     e(  5 -  5) =    -17.67113  eV     1   --> A              
     e(  6 -  6) =     -3.76256  eV     1   --> A              
     e(  7 -  7) =     -1.28272  eV     1   --> A              
     e(  8 -  8) =      3.26476  eV     1   --> A              
     e(  9 -  9) =      3.44630  eV     1   --> A              
     e( 10 - 10) =      6.63708  eV     1   --> A              
     e( 11 - 11) =      7.90440  eV     1   --> A              
     e( 12 - 12) =     11.49061  eV     1   --> A              
     e( 13 - 13) =     11.68379  eV     1   --> A              
     e( 14 - 14) =     13.75631  eV     1   --> A              
     e( 15 - 15) =     13.92357  eV     1   --> A              
     e( 16 - 16) =     18.27282  eV     1   --> A              
     e( 17 - 17) =     18.56021  eV     1   --> A              
     e( 18 - 18) =     20.29223  eV     1   --> A              
     e( 19 - 19) =     20.29430  eV     1   --> A              
     e( 20 - 20) =     22.45576  eV     1   --> A              
     e( 21 - 21) =     22.58522  eV     1   --> A              
     e( 22 - 22) =     24.70887  eV     1   --> A              
     e( 23 - 23) =     25.07798  eV     1   --> A              
     e( 24 - 24) =     25.64280  eV     1   --> A              
     e( 25 - 25) =     25.81509  eV     1   --> A              
     e( 26 - 26) =     27.77960  eV     1   --> A              
     e( 27 - 27) =     27.89795  eV     1   --> A              
     e( 28 - 28) =     29.30731  eV     1   --> A              
     e( 29 - 29) =     29.35066  eV     1   --> A              
     e( 30 - 30) =     30.04461  eV     1   --> A              

 **************************************************************************

 **************************************************************************

                    xk=(   0.50000,   0.12124,   0.44091  )

     Band symmetry, C_1 (1)     point group:

     e(  1 -  1) =    -17.68115  eV     1   --> A              
     e(  2 -  2) =    -17.67919  eV     1   --> A              
     e(  3 -  3) =    -17.67279  eV     1   --> A              
     e(  4 -  4) =    -17.67252  eV     1   --> A              
     e(  5 -  5) =    -17.67117  eV     1   --> A              
     e(  6 -  6) =     -3.77703  eV     1   --> A              
     e(  7 -  7) =     -1.30920  eV     1   --> A              
     e(  8 -  8) =      3.34069  eV     1   --> A              
     e(  9 -  9) =      3.53393  eV     1   --> A              
     e( 10 - 10) =      6.62533  eV     1   --> A              
     e( 11 - 11) =      7.88652  eV     1   --> A              
     e( 12 - 12) =     11.35102  eV     1   --> A              
     e( 13 - 13) =     11.54970  eV     1   --> A              
     e( 14 - 14) =     13.82685  eV     1   --> A              
     e( 15 - 15) =     13.99827  eV     1   --> A              
     e( 16 - 16) =     18.19777  eV     1   --> A              
     e( 17 - 17) =     18.48927  eV     1   --> A              
     e( 18 - 18) =     20.36384  eV     1   --> A              
     e( 19 - 19) =     20.36482  eV     1   --> A              
     e( 20 - 20) =     22.31403  eV     1   --> A              
     e( 21 - 21) =     22.45785  eV     1   --> A              
     e( 22 - 22) =     24.82671  eV     1   --> A              
     e( 23 - 23) =     25.20561  eV     1   --> A              
     e( 24 - 24) =     25.73844  eV     1   --> A              
     e( 25 - 25) =     25.89267  eV     1   --> A              
     e( 26 - 26) =     27.70910  eV     1   --> A              
     e( 27 - 27) =     27.82672  eV     1   --> A              
     e( 28 - 28) =     29.36678  eV     1   --> A              
     e( 29 - 29) =     29.39068  eV     1   --> A              
     e( 30 - 30) =     30.08231  eV     1   --> A              

 **************************************************************************

 **************************************************************************

                    xk=(   0.50000,   0.12702,   0.43274  )

     Band symmetry, C_1 (1)     point group:

     e(  1 -  1) =    -17.68110  eV     1   --> A              
     e(  2 -  2) =    -17.67923  eV     1   --> A              
     e(  3 -  3) =    -17.67280  eV     1   --> A              
     e(  4 -  4) =    -17.67249  eV     1   --> A              
     e(  5 -  5) =    -17.67122  eV     1   --> A              
     e(  6 -  6) =     -3.79158  eV     1   --> A              
     e(  7 -  7) =     -1.33550  eV     1   --> A              
     e(  8 -  8) =      3.41954  eV     1   --> A              
     e(  9 -  9) =      3.62418  eV     1   --> A              
     e( 10 - 10) =      6.61363  eV     1   --> A              
     e( 11 - 11) =      7.86860  eV     1   --> A              
     e( 12 - 12) =     11.20865  eV     1   --> A              
     e( 13 - 13) =     11.41260  eV     1   --> A              
     e( 14 - 14) =     13.90076  eV     1   --> A              
     e( 15 - 15) =     14.07626  eV     1   --> A              
     e( 16 - 16) =     18.12585  eV     1   --> A              
     e( 17 - 17) =     18.42008  eV     1   --> A              
     e( 18 - 18) =     20.42987  eV     1   --> A              
     e( 19 - 19) =     20.43223  eV     1   --> A              
     e( 20 - 20) =     22.17936  eV     1   --> A              
     e( 21 - 21) =     22.33697  eV     1   --> A              
     e( 22 - 22) =     24.90711  eV     1   --> A              
     e( 23 - 23) =     25.28678  eV     1   --> A              
     e( 24 - 24) =     25.87120  eV     1   --> A              
     e( 25 - 25) =     26.01585  eV     1   --> A              
     e( 26 - 26) =     27.64191  eV     1   --> A              
     e( 27 - 27) =     27.75787  eV     1   --> A              
     e( 28 - 28) =     29.40662  eV     1   --> A              
     e( 29 - 29) =     29.40928  eV     1   --> A              
     e( 30 - 30) =     30.12010  eV     1   --> A              

 **************************************************************************

 **************************************************************************

                    xk=(   0.50000,   0.13279,   0.42458  )

     Band symmetry, C_1 (1)     point group:

     e(  1 -  1) =    -17.68104  eV     1   --> A              
     e(  2 -  2) =    -17.67927  eV     1   --> A              
     e(  3 -  3) =    -17.67281  eV     1   --> A              
     e(  4 -  4) =    -17.67246  eV     1   --> A              
     e(  5 -  5) =    -17.67126  eV     1   --> A              
     e(  6 -  6) =     -3.80617  eV     1   --> A              
     e(  7 -  7) =     -1.36152  eV     1   --> A              
     e(  8 -  8) =      3.50123  eV     1   --> A              
     e(  9 -  9) =      3.71692  eV     1   --> A              
     e( 10 - 10) =      6.60208  eV     1   --> A              
     e( 11 - 11) =      7.85069  eV     1   --> A              
     e( 12 - 12) =     11.06389  eV     1   --> A              
     e( 13 - 13) =     11.27288  eV     1   --> A              
     e( 14 - 14) =     13.97787  eV     1   --> A              
     e( 15 - 15) =     14.15736  eV     1   --> A              
     e( 16 - 16) =     18.05705  eV     1   --> A              
     e( 17 - 17) =     18.35295  eV     1   --> A              
     e( 18 - 18) =     20.48875  eV     1   --> A              
     e( 19 - 19) =     20.49149  eV     1   --> A              
     e( 20 - 20) =     22.05512  eV     1   --> A              
     e( 21 - 21) =     22.22565  eV     1   --> A              
     e( 22 - 22) =     24.95527  eV     1   --> A              
     e( 23 - 23) =     25.32787  eV     1   --> A              
     e( 24 - 24) =     26.03482  eV     1   --> A              
     e( 25 - 25) =     26.17746  eV     1   --> A              
     e( 26 - 26) =     27.57818  eV     1   --> A              
     e( 27 - 27) =     27.69120  eV     1   --> A              
     e( 28 - 28) =     29.40369  eV     1   --> A              
     e( 29 - 29) =     29.42200  eV     1   --> A              
     e( 30 - 30) =     30.17012  eV     1   --> A              

 **************************************************************************

 **************************************************************************

                    xk=(   0.50000,   0.13856,   0.41641  )

     Band symmetry, C_1 (1)     point group:

     e(  1 -  1) =    -17.68098  eV     1   --> A              
     e(  2 -  2) =    -17.67931  eV     1   --> A              
     e(  3 -  3) =    -17.67283  eV     1   --> A              
     e(  4 -  4) =    -17.67244  eV     1   --> A              
     e(  5 -  5) =    -17.67130  eV     1   --> A              
     e(  6 -  6) =     -3.82073  eV     1   --> A              
     e(  7 -  7) =     -1.38719  eV     1   --> A              
     e(  8 -  8) =      3.58567  eV     1   --> A              
     e(  9 -  9) =      3.81200  eV     1   --> A              
     e( 10 - 10) =      6.59074  eV     1   --> A              
     e( 11 - 11) =      7.83288  eV     1   --> A              
     e( 12 - 12) =     10.91711  eV     1   --> A              
     e( 13 - 13) =     11.13088  eV     1   --> A              
     e( 14 - 14) =     14.05803  eV     1   --> A              
     e( 15 - 15) =     14.24140  eV     1   --> A              
     e( 16 - 16) =     17.99135  eV     1   --> A              
     e( 17 - 17) =     18.28809  eV     1   --> A              
     e( 18 - 18) =     20.53558  eV     1   --> A              
     e( 19 - 19) =     20.53872  eV     1   --> A              
     e( 20 - 20) =     21.94597  eV     1   --> A              
     e( 21 - 21) =     22.12782  eV     1   --> A              
     e( 22 - 22) =     24.98018  eV     1   --> A              
     e( 23 - 23) =     25.34275  eV     1   --> A              
     e( 24 - 24) =     26.21872  eV     1   --> A              
     e( 25 - 25) =     26.36252  eV     1   --> A              
     e( 26 - 26) =     27.51823  eV     1   --> A              
     e( 27 - 27) =     27.62651  eV     1   --> A              
     e( 28 - 28) =     29.37521  eV     1   --> A              
     e( 29 - 29) =     29.41218  eV     1   --> A              
     e( 30 - 30) =     30.23573  eV     1   --> A              

 **************************************************************************

 **************************************************************************

                    xk=(   0.50000,   0.14434,   0.40825  )

     Band symmetry, C_1 (1)     point group:

     e(  1 -  1) =    -17.68093  eV     1   --> A              
     e(  2 -  2) =    -17.67935  eV     1   --> A              
     e(  3 -  3) =    -17.67284  eV     1   --> A              
     e(  4 -  4) =    -17.67241  eV     1   --> A              
     e(  5 -  5) =    -17.67134  eV     1   --> A              
     e(  6 -  6) =     -3.83520  eV     1   --> A              
     e(  7 -  7) =     -1.41241  eV     1   --> A              
     e(  8 -  8) =      3.67277  eV     1   --> A              
     e(  9 -  9) =      3.90930  eV     1   --> A              
     e( 10 - 10) =      6.57971  eV     1   --> A              
     e( 11 - 11) =      7.81522  eV     1   --> A              
     e( 12 - 12) =     10.76867  eV     1   --> A              
     e( 13 - 13) =     10.98689  eV     1   --> A              
     e( 14 - 14) =     14.14110  eV     1   --> A              
     e( 15 - 15) =     14.32823  eV     1   --> A              
     e( 16 - 16) =     17.92874  eV     1   --> A              
     e( 17 - 17) =     18.22563  eV     1   --> A              
     e( 18 - 18) =     20.56419  eV     1   --> A              
     e( 19 - 19) =     20.56924  eV     1   --> A              
     e( 20 - 20) =     21.85797  eV     1   --> A              
     e( 21 - 21) =     22.04825  eV     1   --> A              
     e( 22 - 22) =     24.98980  eV     1   --> A              
     e( 23 - 23) =     25.34232  eV     1   --> A              
     e( 24 - 24) =     26.41245  eV     1   --> A              
     e( 25 - 25) =     26.55844  eV     1   --> A              
     e( 26 - 26) =     27.46270  eV     1   --> A              
     e( 27 - 27) =     27.56355  eV     1   --> A              
     e( 28 - 28) =     29.32875  eV     1   --> A              
     e( 29 - 29) =     29.38147  eV     1   --> A              
     e( 30 - 30) =     30.31674  eV     1   --> A              

 **************************************************************************

 **************************************************************************

                    xk=(   0.50000,   0.15011,   0.40008  )

     Band symmetry, C_1 (1)     point group:

     e(  1 -  1) =    -17.68087  eV     1   --> A              
     e(  2 -  2) =    -17.67939  eV     1   --> A              
     e(  3 -  3) =    -17.67286  eV     1   --> A              
     e(  4 -  4) =    -17.67238  eV     1   --> A              
     e(  5 -  5) =    -17.67138  eV     1   --> A              
     e(  6 -  6) =     -3.84953  eV     1   --> A              
     e(  7 -  7) =     -1.43710  eV     1   --> A              
     e(  8 -  8) =      3.76242  eV     1   --> A              
     e(  9 -  9) =      4.00868  eV     1   --> A              
     e( 10 - 10) =      6.56908  eV     1   --> A              
     e( 11 - 11) =      7.79778  eV     1   --> A              
     e( 12 - 12) =     10.61887  eV     1   --> A              
     e( 13 - 13) =     10.84120  eV     1   --> A              
     e( 14 - 14) =     14.22693  eV     1   --> A              
     e( 15 - 15) =     14.41769  eV     1   --> A              
     e( 16 - 16) =     17.86918  eV     1   --> A              
     e( 17 - 17) =     18.16567  eV     1   --> A              
     e( 18 - 18) =     20.56788  eV     1   --> A              
     e( 19 - 19) =     20.57812  eV     1   --> A              
     e( 20 - 20) =     21.79771  eV     1   --> A              
     e( 21 - 21) =     21.99193  eV     1   --> A              
     e( 22 - 22) =     24.98960  eV     1   --> A              
     e( 23 - 23) =     25.33294  eV     1   --> A              
     e( 24 - 24) =     26.60640  eV     1   --> A              
     e( 25 - 25) =     26.75635  eV     1   --> A              
     e( 26 - 26) =     27.41299  eV     1   --> A              
     e( 27 - 27) =     27.50204  eV     1   --> A              
     e( 28 - 28) =     29.27147  eV     1   --> A              
     e( 29 - 29) =     29.33770  eV     1   --> A              
     e( 30 - 30) =     30.41071  eV     1   --> A              

 **************************************************************************

 **************************************************************************

                    xk=(   0.50000,   0.15588,   0.39192  )

     Band symmetry, C_1 (1)     point group:

     e(  1 -  1) =    -17.68081  eV     1   --> A              
     e(  2 -  2) =    -17.67943  eV     1   --> A              
     e(  3 -  3) =    -17.67287  eV     1   --> A              
     e(  4 -  4) =    -17.67235  eV     1   --> A              
     e(  5 -  5) =    -17.67142  eV     1   --> A              
     e(  6 -  6) =     -3.86367  eV     1   --> A              
     e(  7 -  7) =     -1.46121  eV     1   --> A              
     e(  8 -  8) =      3.85453  eV     1   --> A              
     e(  9 -  9) =      4.10999  eV     1   --> A              
     e( 10 - 10) =      6.55893  eV     1   --> A              
     e( 11 - 11) =      7.78062  eV     1   --> A              
     e( 12 - 12) =     10.46802  eV     1   --> A              
     e( 13 - 13) =     10.69408  eV     1   --> A              
     e( 14 - 14) =     14.31541  eV     1   --> A              
     e( 15 - 15) =     14.50964  eV     1   --> A              
     e( 16 - 16) =     17.81265  eV     1   --> A              
     e( 17 - 17) =     18.10826  eV     1   --> A              
     e( 18 - 18) =     20.54168  eV     1   --> A              
     e( 19 - 19) =     20.56154  eV     1   --> A              
     e( 20 - 20) =     21.77010  eV     1   --> A              
     e( 21 - 21) =     21.96274  eV     1   --> A              
     e( 22 - 22) =     24.98305  eV     1   --> A              
     e( 23 - 23) =     25.31814  eV     1   --> A              
     e( 24 - 24) =     26.78958  eV     1   --> A              
     e( 25 - 25) =     26.94911  eV     1   --> A              
     e( 26 - 26) =     27.37258  eV     1   --> A              
     e( 27 - 27) =     27.44164  eV     1   --> A              
     e( 28 - 28) =     29.21178  eV     1   --> A              
     e( 29 - 29) =     29.29030  eV     1   --> A              
     e( 30 - 30) =     30.51475  eV     1   --> A              

 **************************************************************************

 **************************************************************************

                    xk=(   0.50000,   0.16166,   0.38375  )

     Band symmetry, C_1 (1)     point group:

     e(  1 -  1) =    -17.68076  eV     1   --> A              
     e(  2 -  2) =    -17.67947  eV     1   --> A              
     e(  3 -  3) =    -17.67289  eV     1   --> A              
     e(  4 -  4) =    -17.67232  eV     1   --> A              
     e(  5 -  5) =    -17.67145  eV     1   --> A              
     e(  6 -  6) =     -3.87757  eV     1   --> A              
     e(  7 -  7) =     -1.48466  eV     1   --> A              
     e(  8 -  8) =      3.94899  eV     1   --> A              
     e(  9 -  9) =      4.21310  eV     1   --> A              
     e( 10 - 10) =      6.54938  eV     1   --> A              
     e( 11 - 11) =      7.76379  eV     1   --> A              
     e( 12 - 12) =     10.31639  eV     1   --> A              
     e( 13 - 13) =     10.54575  eV     1   --> A              
     e( 14 - 14) =     14.40641  eV     1   --> A              
     e( 15 - 15) =     14.60394  eV     1   --> A              
     e( 16 - 16) =     17.75911  eV     1   --> A              
     e( 17 - 17) =     18.05344  eV     1   --> A              
     e( 18 - 18) =     20.48487  eV     1   --> A              
     e( 19 - 19) =     20.51826  eV     1   --> A              
     e( 20 - 20) =     21.77583  eV     1   --> A              
     e( 21 - 21) =     21.96197  eV     1   --> A              
     e( 22 - 22) =     24.97235  eV     1   --> A              
     e( 23 - 23) =     25.29989  eV     1   --> A              
     e( 24 - 24) =     26.94463  eV     1   --> A              
     e( 25 - 25) =     27.12938  eV     1   --> A              
     e( 26 - 26) =     27.35074  eV     1   --> A              
     e( 27 - 27) =     27.38212  eV     1   --> A              
     e( 28 - 28) =     29.15938  eV     1   --> A              
     e( 29 - 29) =     29.24951  eV     1   --> A              
     e( 30 - 30) =     30.62652  eV     1   --> A              

 **************************************************************************

 **************************************************************************

                    xk=(   0.50000,   0.16743,   0.37559  )

     Band symmetry, C_1 (1)     point group:

     e(  1 -  1) =    -17.68070  eV     1   --> A              
     e(  2 -  2) =    -17.67952  eV     1   --> A              
     e(  3 -  3) =    -17.67291  eV     1   --> A              
     e(  4 -  4) =    -17.67230  eV     1   --> A              
     e(  5 -  5) =    -17.67149  eV     1   --> A              
     e(  6 -  6) =     -3.89117  eV     1   --> A              
     e(  7 -  7) =     -1.50741  eV     1   --> A              
     e(  8 -  8) =      4.04570  eV     1   --> A              
     e(  9 -  9) =      4.31784  eV     1   --> A              
     e( 10 - 10) =      6.54054  eV     1   --> A              
     e( 11 - 11) =      7.74735  eV     1   --> A              
     e( 12 - 12) =     10.16427  eV     1   --> A              
     e( 13 - 13) =     10.39645  eV     1   --> A              
     e( 14 - 14) =     14.49980  eV     1   --> A              
     e( 15 - 15) =     14.70044  eV     1   --> A              
     e( 16 - 16) =     17.70854  eV     1   --> A              
     e( 17 - 17) =     18.00122  eV     1   --> A              
     e( 18 - 18) =     20.40129  eV     1   --> A              
     e( 19 - 19) =     20.45017  eV     1   --> A              
     e( 20 - 20) =     21.81105  eV     1   --> A              
     e( 21 - 21) =     21.98779  eV     1   --> A              
     e( 22 - 22) =     24.95887  eV     1   --> A              
     e( 23 - 23) =     25.27934  eV     1   --> A              
     e( 24 - 24) =     27.04225  eV     1   --> A              
     e( 25 - 25) =     27.28510  eV     1   --> A              
     e( 26 - 26) =     27.32691  eV     1   --> A              
     e( 27 - 27) =     27.36699  eV     1   --> A              
     e( 28 - 28) =     29.12570  eV     1   --> A              
     e( 29 - 29) =     29.22650  eV     1   --> A              
     e( 30 - 30) =     30.74427  eV     1   --> A              

 **************************************************************************

 **************************************************************************

                    xk=(   0.50000,   0.17321,   0.36742  )

     Band symmetry, C_1 (1)     point group:

     e(  1 -  1) =    -17.68065  eV     1   --> A              
     e(  2 -  2) =    -17.67956  eV     1   --> A              
     e(  3 -  3) =    -17.67293  eV     1   --> A              
     e(  4 -  4) =    -17.67227  eV     1   --> A              
     e(  5 -  5) =    -17.67152  eV     1   --> A              
     e(  6 -  6) =     -3.90444  eV     1   --> A              
     e(  7 -  7) =     -1.52939  eV     1   --> A              
     e(  8 -  8) =      4.14453  eV     1   --> A              
     e(  9 -  9) =      4.42404  eV     1   --> A              
     e( 10 - 10) =      6.53255  eV     1   --> A              
     e( 11 - 11) =      7.73134  eV     1   --> A              
     e( 12 - 12) =     10.01190  eV     1   --> A              
     e( 13 - 13) =     10.24637  eV     1   --> A              
     e( 14 - 14) =     14.59545  eV     1   --> A              
     e( 15 - 15) =     14.79900  eV     1   --> A              
     e( 16 - 16) =     17.66093  eV     1   --> A              
     e( 17 - 17) =     17.95160  eV     1   --> A              
     e( 18 - 18) =     20.29703  eV     1   --> A              
     e( 19 - 19) =     20.36132  eV     1   --> A              
     e( 20 - 20) =     21.86965  eV     1   --> A              
     e( 21 - 21) =     22.03618  eV     1   --> A              
     e( 22 - 22) =     24.94350  eV     1   --> A              
     e( 23 - 23) =     25.25719  eV     1   --> A              
     e( 24 - 24) =     27.06797  eV     1   --> A              
     e( 25 - 25) =     27.26006  eV     1   --> A              
     e( 26 - 26) =     27.42262  eV     1   --> A              
     e( 27 - 27) =     27.42427  eV     1   --> A              
     e( 28 - 28) =     29.12367  eV     1   --> A              
     e( 29 - 29) =     29.23288  eV     1   --> A              
     e( 30 - 30) =     30.86680  eV     1   --> A              

 **************************************************************************

 **************************************************************************

                    xk=(   0.50000,   0.17898,   0.35926  )

     Band symmetry, C_1 (1)     point group:

     e(  1 -  1) =    -17.68059  eV     1   --> A              
     e(  2 -  2) =    -17.67960  eV     1   --> A              
     e(  3 -  3) =    -17.67295  eV     1   --> A              
     e(  4 -  4) =    -17.67224  eV     1   --> A              
     e(  5 -  5) =    -17.67155  eV     1   --> A              
     e(  6 -  6) =     -3.91733  eV     1   --> A              
     e(  7 -  7) =     -1.55055  eV     1   --> A              
     e(  8 -  8) =      4.24535  eV     1   --> A              
     e(  9 -  9) =      4.53149  eV     1   --> A              
     e( 10 - 10) =      6.52556  eV     1   --> A              
     e( 11 - 11) =      7.71581  eV     1   --> A              
     e( 12 - 12) =      9.85955  eV     1   --> A              
     e( 13 - 13) =     10.09572  eV     1   --> A              
     e( 14 - 14) =     14.69323  eV     1   --> A              
     e( 15 - 15) =     14.89944  eV     1   --> A              
     e( 16 - 16) =     17.61628  eV     1   --> A              
     e( 17 - 17) =     17.90459  eV     1   --> A              
     e( 18 - 18) =     20.17808  eV     1   --> A              
     e( 19 - 19) =     20.25638  eV     1   --> A              
     e( 20 - 20) =     21.94569  eV     1   --> A              
     e( 21 - 21) =     22.10252  eV     1   --> A              
     e( 22 - 22) =     24.92686  eV     1   --> A              
     e( 23 - 23) =     25.23383  eV     1   --> A              
     e( 24 - 24) =     27.05154  eV     1   --> A              
     e( 25 - 25) =     27.19912  eV     1   --> A              
     e( 26 - 26) =     27.48197  eV     1   --> A              
     e( 27 - 27) =     27.51591  eV     1   --> A              
     e( 28 - 28) =     29.16539  eV     1   --> A              
     e( 29 - 29) =     29.27883  eV     1   --> A              
     e( 30 - 30) =     30.99329  eV     1   --> A              

 **************************************************************************

 **************************************************************************

                    xk=(   0.50000,   0.18475,   0.35109  )

     Band symmetry, C_1 (1)     point group:

     e(  1 -  1) =    -17.68054  eV     1   --> A              
     e(  2 -  2) =    -17.67964  eV     1   --> A              
     e(  3 -  3) =    -17.67297  eV     1   --> A              
     e(  4 -  4) =    -17.67222  eV     1   --> A              
     e(  5 -  5) =    -17.67158  eV     1   --> A              
     e(  6 -  6) =     -3.92980  eV     1   --> A              
     e(  7 -  7) =     -1.57086  eV     1   --> A              
     e(  8 -  8) =      4.34803  eV     1   --> A              
     e(  9 -  9) =      4.63997  eV     1   --> A              
     e( 10 - 10) =      6.51976  eV     1   --> A              
     e( 11 - 11) =      7.70080  eV     1   --> A              
     e( 12 - 12) =      9.70747  eV     1   --> A              
     e( 13 - 13) =      9.94468  eV     1   --> A              
     e( 14 - 14) =     14.79297  eV     1   --> A              
     e( 15 - 15) =     15.00160  eV     1   --> A              
     e( 16 - 16) =     17.57460  eV     1   --> A              
     e( 17 - 17) =     17.86016  eV     1   --> A              
     e( 18 - 18) =     20.04915  eV     1   --> A              
     e( 19 - 19) =     20.13957  eV     1   --> A              
     e( 20 - 20) =     22.03444  eV     1   --> A              
     e( 21 - 21) =     22.18262  eV     1   --> A              
     e( 22 - 22) =     24.90934  eV     1   --> A              
     e( 23 - 23) =     25.20953  eV     1   --> A              
     e( 24 - 24) =     27.01876  eV     1   --> A              
     e( 25 - 25) =     27.13565  eV     1   --> A              
     e( 26 - 26) =     27.50869  eV     1   --> A              
     e( 27 - 27) =     27.56934  eV     1   --> A              
     e( 28 - 28) =     29.25745  eV     1   --> A              
     e( 29 - 29) =     29.36966  eV     1   --> A              
     e( 30 - 30) =     31.12314  eV     1   --> A              

 **************************************************************************

 **************************************************************************

                    xk=(   0.50000,   0.19053,   0.34293  )

     Band symmetry, C_1 (1)     point group:

     e(  1 -  1) =    -17.68049  eV     1   --> A              
     e(  2 -  2) =    -17.67968  eV     1   --> A              
     e(  3 -  3) =    -17.67299  eV     1   --> A              
     e(  4 -  4) =    -17.67219  eV     1   --> A              
     e(  5 -  5) =    -17.67160  eV     1   --> A              
     e(  6 -  6) =     -3.94181  eV     1   --> A              
     e(  7 -  7) =     -1.59026  eV     1   --> A              
     e(  8 -  8) =      4.45242  eV     1   --> A              
     e(  9 -  9) =      4.74921  eV     1   --> A              
     e( 10 - 10) =      6.51537  eV     1   --> A              
     e( 11 - 11) =      7.68635  eV     1   --> A              
     e( 12 - 12) =      9.55593  eV     1   --> A              
     e( 13 - 13) =      9.79343  eV     1   --> A              
     e( 14 - 14) =     14.89454  eV     1   --> A              
     e( 15 - 15) =     15.10528  eV     1   --> A              
     e( 16 - 16) =     17.53591  eV     1   --> A              
     e( 17 - 17) =     17.81832  eV     1   --> A              
     e( 18 - 18) =     19.91369  eV     1   --> A              
     e( 19 - 19) =     20.01426  eV     1   --> A              
     e( 20 - 20) =     22.13253  eV     1   --> A              
     e( 21 - 21) =     22.27310  eV     1   --> A              
     e( 22 - 22) =     24.89121  eV     1   --> A              
     e( 23 - 23) =     25.18437  eV     1   --> A              
     e( 24 - 24) =     26.97905  eV     1   --> A              
     e( 25 - 25) =     27.06907  eV     1   --> A              
     e( 26 - 26) =     27.49784  eV     1   --> A              
     e( 27 - 27) =     27.58611  eV     1   --> A              
     e( 28 - 28) =     29.39786  eV     1   --> A              
     e( 29 - 29) =     29.50388  eV     1   --> A              
     e( 30 - 30) =     31.25248  eV     1   --> A              

 **************************************************************************

 **************************************************************************

                    xk=(   0.50000,   0.19630,   0.33476  )

     Band symmetry, C_1 (1)     point group:

     e(  1 -  1) =    -17.68044  eV     1   --> A              
     e(  2 -  2) =    -17.67971  eV     1   --> A              
     e(  3 -  3) =    -17.67301  eV     1   --> A              
     e(  4 -  4) =    -17.67217  eV     1   --> A              
     e(  5 -  5) =    -17.67163  eV     1   --> A              
     e(  6 -  6) =     -3.95332  eV     1   --> A              
     e(  7 -  7) =     -1.60874  eV     1   --> A              
     e(  8 -  8) =      4.55834  eV     1   --> A              
     e(  9 -  9) =      4.85887  eV     1   --> A              
     e( 10 - 10) =      6.51267  eV     1   --> A              
     e( 11 - 11) =      7.67248  eV     1   --> A              
     e( 12 - 12) =      9.40519  eV     1   --> A              
     e( 13 - 13) =      9.64214  eV     1   --> A              
     e( 14 - 14) =     14.99775  eV     1   --> A              
     e( 15 - 15) =     15.21028  eV     1   --> A              
     e( 16 - 16) =     17.50025  eV     1   --> A              
     e( 17 - 17) =     17.77904  eV     1   --> A              
     e( 18 - 18) =     19.77414  eV     1   --> A              
     e( 19 - 19) =     19.88301  eV     1   --> A              
     e( 20 - 20) =     22.23755  eV     1   --> A              
     e( 21 - 21) =     22.37144  eV     1   --> A              
     e( 22 - 22) =     24.87263  eV     1   --> A              
     e( 23 - 23) =     25.15836  eV     1   --> A              
     e( 24 - 24) =     26.93513  eV     1   --> A              
     e( 25 - 25) =     26.99852  eV     1   --> A              
     e( 26 - 26) =     27.45572  eV     1   --> A              
     e( 27 - 27) =     27.57464  eV     1   --> A              
     e( 28 - 28) =     29.57825  eV     1   --> A              
     e( 29 - 29) =     29.67475  eV     1   --> A              
     e( 30 - 30) =     31.38113  eV     1   --> A              

 **************************************************************************

 **************************************************************************

                    xk=(   0.50000,   0.20207,   0.32660  )

     Band symmetry, C_1 (1)     point group:

     e(  1 -  1) =    -17.68040  eV     1   --> A              
     e(  2 -  2) =    -17.67975  eV     1   --> A              
     e(  3 -  3) =    -17.67303  eV     1   --> A              
     e(  4 -  4) =    -17.67215  eV     1   --> A              
     e(  5 -  5) =    -17.67165  eV     1   --> A              
     e(  6 -  6) =     -3.96430  eV     1   --> A              
     e(  7 -  7) =     -1.62624  eV     1   --> A              
     e(  8 -  8) =      4.66558  eV     1   --> A              
     e(  9 -  9) =      4.96855  eV     1   --> A              
     e( 10 - 10) =      6.51201  eV     1   --> A              
     e( 11 - 11) =      7.65922  eV     1   --> A              
     e( 12 - 12) =      9.25555  eV     1   --> A              
     e( 13 - 13) =      9.49098  eV     1   --> A              
     e( 14 - 14) =     15.10239  eV     1   --> A              
     e( 15 - 15) =     15.31632  eV     1   --> A              
     e( 16 - 16) =     17.46770  eV     1   --> A              
     e( 17 - 17) =     17.74231  eV     1   --> A              
     e( 18 - 18) =     19.63222  eV     1   --> A              
     e( 19 - 19) =     19.74774  eV     1   --> A              
     e( 20 - 20) =     22.34781  eV     1   --> A              
     e( 21 - 21) =     22.47571  eV     1   --> A              
     e( 22 - 22) =     24.85367  eV     1   --> A              
[...]

 **************************************************************************

                    xk=(   0.31500,   0.18187,   0.51439  )

     Band symmetry, C_s (m)     point group:

     e(  1 -  1) =    -17.68109  eV     1   --> A'             
     e(  2 -  2) =    -17.67920  eV     1   --> A''            
     e(  3 -  3) =    -17.67293  eV     1   --> A'             
     e(  4 -  4) =    -17.67216  eV     1   --> A'             
     e(  5 -  5) =    -17.67143  eV     1   --> A''            
     e(  6 -  6) =     -3.79259  eV     1   --> A'             
     e(  7 -  7) =     -1.20810  eV     1   --> A'             
     e(  8 -  8) =      2.58469  eV     1   --> A'             
     e(  9 -  9) =      4.84650  eV     1   --> A''            
     e( 10 - 10) =      5.30755  eV     1   --> A'             
     e( 11 - 11) =      9.26416  eV     1   --> A''            
     e( 12 - 12) =      9.84584  eV     1   --> A'             
     e( 13 - 13) =     12.89204  eV     1   --> A'             
     e( 14 - 14) =     13.66206  eV     1   --> A'             
     e( 15 - 15) =     14.66464  eV     1   --> A'             
     e( 16 - 16) =     15.71568  eV     1   --> A''            
     e( 17 - 17) =     18.11892  eV     1   --> A'             
     e( 18 - 18) =     21.54872  eV     1   --> A'             
     e( 19 - 19) =     22.56876  eV     1   --> A''            
     e( 20 - 20) =     22.81589  eV     1   --> A'             
     e( 21 - 21) =     23.58992  eV     1   --> A''            
     e( 22 - 22) =     23.85582  eV     1   --> A'             
     e( 23 - 23) =     23.91256  eV     1   --> A''            
     e( 24 - 24) =     25.14600  eV     1   --> A'             
     e( 25 - 25) =     26.33447  eV     1   --> A'             
     e( 26 - 26) =     26.66891  eV     1   --> A''            
     e( 27 - 27) =     26.83244  eV     1   --> A'             
     e( 28 - 28) =     27.74272  eV     1   --> A''            
     e( 29 - 29) =     28.80731  eV     1   --> A'             
     e( 30 - 30) =     30.69750  eV     1   --> A'             

 **************************************************************************

 **************************************************************************

                    xk=(   0.32250,   0.18620,   0.52664  )

     Band symmetry, C_s (m)     point group:

     e(  1 -  1) =    -17.68122  eV     1   --> A'             
     e(  2 -  2) =    -17.67912  eV     1   --> A''            
     e(  3 -  3) =    -17.67303  eV     1   --> A'             
     e(  4 -  4) =    -17.67207  eV     1   --> A'             
     e(  5 -  5) =    -17.67136  eV     1   --> A''            
     e(  6 -  6) =     -3.75737  eV     1   --> A'             
     e(  7 -  7) =     -1.20398  eV     1   --> A'             
     e(  8 -  8) =      2.51418  eV     1   --> A'             
     e(  9 -  9) =      4.76088  eV     1   --> A''            
     e( 10 - 10) =      5.20805  eV     1   --> A'             
     e( 11 - 11) =      9.41091  eV     1   --> A''            
     e( 12 - 12) =      9.98244  eV     1   --> A'             
     e( 13 - 13) =     12.97925  eV     1   --> A'             
     e( 14 - 14) =     13.39323  eV     1   --> A'             
     e( 15 - 15) =     14.81205  eV     1   --> A'             
     e( 16 - 16) =     15.86817  eV     1   --> A''            
     e( 17 - 17) =     18.25119  eV     1   --> A'             
     e( 18 - 18) =     21.76185  eV     1   --> A'             
     e( 19 - 19) =     22.24912  eV     1   --> A''            
     e( 20 - 20) =     22.75208  eV     1   --> A'             
     e( 21 - 21) =     23.50339  eV     1   --> A''            
     e( 22 - 22) =     23.83838  eV     1   --> A''            
     e( 23 - 23) =     23.85487  eV     1   --> A'             
     e( 24 - 24) =     25.00832  eV     1   --> A'             
     e( 25 - 25) =     26.45119  eV     1   --> A'             
     e( 26 - 26) =     26.77391  eV     1   --> A'             
     e( 27 - 27) =     27.03151  eV     1   --> A''            
     e( 28 - 28) =     27.41804  eV     1   --> A''            
     e( 29 - 29) =     29.07028  eV     1   --> A'             
     e( 30 - 30) =     30.40647  eV     1   --> A'             

 **************************************************************************

 **************************************************************************

                    xk=(   0.33000,   0.19053,   0.53889  )

     Band symmetry, C_s (m)     point group:

     e(  1 -  1) =    -17.68135  eV     1   --> A'             
     e(  2 -  2) =    -17.67903  eV     1   --> A''            
     e(  3 -  3) =    -17.67314  eV     1   --> A'             
     e(  4 -  4) =    -17.67198  eV     1   --> A'             
     e(  5 -  5) =    -17.67129  eV     1   --> A''            
     e(  6 -  6) =     -3.72804  eV     1   --> A'             
     e(  7 -  7) =     -1.19002  eV     1   --> A'             
     e(  8 -  8) =      2.44612  eV     1   --> A'             
     e(  9 -  9) =      4.67814  eV     1   --> A''            
     e( 10 - 10) =      5.11076  eV     1   --> A'             
     e( 11 - 11) =      9.56100  eV     1   --> A''            
     e( 12 - 12) =     10.11976  eV     1   --> A'             
     e( 13 - 13) =     13.06587  eV     1   --> A'             
     e( 14 - 14) =     13.13077  eV     1   --> A'             
     e( 15 - 15) =     14.96358  eV     1   --> A'             
     e( 16 - 16) =     16.02414  eV     1   --> A''            
     e( 17 - 17) =     18.38672  eV     1   --> A'             
     e( 18 - 18) =     21.91856  eV     1   --> A'             
     e( 19 - 19) =     21.93318  eV     1   --> A''            
     e( 20 - 20) =     22.69319  eV     1   --> A'             
     e( 21 - 21) =     23.42033  eV     1   --> A''            
     e( 22 - 22) =     23.76382  eV     1   --> A''            
     e( 23 - 23) =     23.84609  eV     1   --> A'             
     e( 24 - 24) =     24.93373  eV     1   --> A'             
     e( 25 - 25) =     26.14304  eV     1   --> A'             
     e( 26 - 26) =     27.09696  eV     1   --> A''            
     e( 27 - 27) =     27.14852  eV     1   --> A'             
     e( 28 - 28) =     27.40107  eV     1   --> A''            
     e( 29 - 29) =     29.32662  eV     1   --> A'             
     e( 30 - 30) =     30.12187  eV     1   --> A'             

 **************************************************************************

 **************************************************************************

                    xk=(   0.33750,   0.19486,   0.55114  )

     Band symmetry, C_s (m)     point group:

     e(  1 -  1) =    -17.68147  eV     1   --> A'             
     e(  2 -  2) =    -17.67893  eV     1   --> A''            
     e(  3 -  3) =    -17.67324  eV     1   --> A'             
     e(  4 -  4) =    -17.67189  eV     1   --> A'             
     e(  5 -  5) =    -17.67123  eV     1   --> A''            
     e(  6 -  6) =     -3.70459  eV     1   --> A'             
     e(  7 -  7) =     -1.16644  eV     1   --> A'             
     e(  8 -  8) =      2.38056  eV     1   --> A'             
     e(  9 -  9) =      4.59840  eV     1   --> A''            
     e( 10 - 10) =      5.01569  eV     1   --> A'             
     e( 11 - 11) =      9.71417  eV     1   --> A''            
     e( 12 - 12) =     10.25734  eV     1   --> A'             
     e( 13 - 13) =     12.87552  eV     1   --> A'             
     e( 14 - 14) =     13.15164  eV     1   --> A'             
     e( 15 - 15) =     15.11922  eV     1   --> A'             
     e( 16 - 16) =     16.18357  eV     1   --> A''            
     e( 17 - 17) =     18.52515  eV     1   --> A'             
     e( 18 - 18) =     21.62131  eV     1   --> A''            
     e( 19 - 19) =     22.00441  eV     1   --> A'             
     e( 20 - 20) =     22.63920  eV     1   --> A'             
     e( 21 - 21) =     23.34068  eV     1   --> A''            
     e( 22 - 22) =     23.69019  eV     1   --> A''            
     e( 23 - 23) =     23.83293  eV     1   --> A'             
     e( 24 - 24) =     24.93521  eV     1   --> A'             
     e( 25 - 25) =     25.82139  eV     1   --> A'             
     e( 26 - 26) =     26.77955  eV     1   --> A''            
     e( 27 - 27) =     27.54488  eV     1   --> A'             
     e( 28 - 28) =     27.77590  eV     1   --> A''            
     e( 29 - 29) =     29.54452  eV     1   --> A'             
     e( 30 - 30) =     29.84391  eV     1   --> A'             

 **************************************************************************

 **************************************************************************

                    xk=(   0.34500,   0.19919,   0.56338  )

     Band symmetry, C_s (m)     point group:

     e(  1 -  1) =    -17.68160  eV     1   --> A'             
     e(  2 -  2) =    -17.67884  eV     1   --> A''            
     e(  3 -  3) =    -17.67336  eV     1   --> A'             
     e(  4 -  4) =    -17.67180  eV     1   --> A'             
     e(  5 -  5) =    -17.67117  eV     1   --> A''            
     e(  6 -  6) =     -3.68685  eV     1   --> A'             
     e(  7 -  7) =     -1.13365  eV     1   --> A'             
     e(  8 -  8) =      2.31759  eV     1   --> A'             
     e(  9 -  9) =      4.52178  eV     1   --> A''            
     e( 10 - 10) =      4.92286  eV     1   --> A'             
     e( 11 - 11) =      9.87012  eV     1   --> A''            
     e( 12 - 12) =     10.39454  eV     1   --> A'             
     e( 13 - 13) =     12.62840  eV     1   --> A'             
     e( 14 - 14) =     13.23627  eV     1   --> A'             
     e( 15 - 15) =     15.27896  eV     1   --> A'             
     e( 16 - 16) =     16.34644  eV     1   --> A''            
     e( 17 - 17) =     18.66617  eV     1   --> A'             
     e( 18 - 18) =     21.31388  eV     1   --> A''            
     e( 19 - 19) =     22.01395  eV     1   --> A'             
     e( 20 - 20) =     22.59006  eV     1   --> A'             
     e( 21 - 21) =     23.26444  eV     1   --> A''            
     e( 22 - 22) =     23.61831  eV     1   --> A''            
     e( 23 - 23) =     23.81614  eV     1   --> A'             
     e( 24 - 24) =     25.01925  eV     1   --> A'             
     e( 25 - 25) =     25.50165  eV     1   --> A'             
     e( 26 - 26) =     26.46588  eV     1   --> A''            
     e( 27 - 27) =     27.94764  eV     1   --> A'             
     e( 28 - 28) =     28.15490  eV     1   --> A''            
     e( 29 - 29) =     29.57285  eV     1   --> A'             
     e( 30 - 30) =     29.65627  eV     1   --> A'             

 **************************************************************************

 **************************************************************************

                    xk=(   0.35250,   0.20352,   0.57563  )

     Band symmetry, C_s (m)     point group:

     e(  1 -  1) =    -17.68173  eV     1   --> A'             
     e(  2 -  2) =    -17.67874  eV     1   --> A''            
     e(  3 -  3) =    -17.67347  eV     1   --> A'             
     e(  4 -  4) =    -17.67171  eV     1   --> A'             
     e(  5 -  5) =    -17.67111  eV     1   --> A''            
     e(  6 -  6) =     -3.67447  eV     1   --> A'             
     e(  7 -  7) =     -1.09224  eV     1   --> A'             
     e(  8 -  8) =      2.25725  eV     1   --> A'             
     e(  9 -  9) =      4.44837  eV     1   --> A''            
     e( 10 - 10) =      4.83226  eV     1   --> A'             
     e( 11 - 11) =     10.02858  eV     1   --> A''            
     e( 12 - 12) =     10.53040  eV     1   --> A'             
     e( 13 - 13) =     12.39056  eV     1   --> A'             
     e( 14 - 14) =     13.31946  eV     1   --> A'             
     e( 15 - 15) =     15.44277  eV     1   --> A'             
     e( 16 - 16) =     16.51272  eV     1   --> A''            
     e( 17 - 17) =     18.80945  eV     1   --> A'             
     e( 18 - 18) =     21.01118  eV     1   --> A''            
     e( 19 - 19) =     21.95450  eV     1   --> A'             
     e( 20 - 20) =     22.54564  eV     1   --> A'             
     e( 21 - 21) =     23.19156  eV     1   --> A''            
     e( 22 - 22) =     23.54872  eV     1   --> A''            
     e( 23 - 23) =     23.79428  eV     1   --> A'             
     e( 24 - 24) =     25.18149  eV     1   --> A'             
     e( 25 - 25) =     25.18550  eV     1   --> A'             
     e( 26 - 26) =     26.15604  eV     1   --> A''            
     e( 27 - 27) =     28.35516  eV     1   --> A'             
     e( 28 - 28) =     28.53729  eV     1   --> A''            
     e( 29 - 29) =     29.30905  eV     1   --> A'             
     e( 30 - 30) =     29.60666  eV     1   --> A'             

 **************************************************************************

 **************************************************************************

                    xk=(   0.36000,   0.20785,   0.58788  )

     Band symmetry, C_s (m)     point group:

     e(  1 -  1) =    -17.68186  eV     1   --> A'             
     e(  2 -  2) =    -17.67864  eV     1   --> A''            
     e(  3 -  3) =    -17.67358  eV     1   --> A'             
     e(  4 -  4) =    -17.67162  eV     1   --> A'             
     e(  5 -  5) =    -17.67105  eV     1   --> A''            
     e(  6 -  6) =     -3.66701  eV     1   --> A'             
     e(  7 -  7) =     -1.04297  eV     1   --> A'             
     e(  8 -  8) =      2.19960  eV     1   --> A'             
     e(  9 -  9) =      4.37826  eV     1   --> A''            
     e( 10 - 10) =      4.74393  eV     1   --> A'             
     e( 11 - 11) =     10.18924  eV     1   --> A''            
     e( 12 - 12) =     10.66336  eV     1   --> A'             
     e( 13 - 13) =     12.16376  eV     1   --> A'             
     e( 14 - 14) =     13.40094  eV     1   --> A'             
     e( 15 - 15) =     15.61064  eV     1   --> A'             
     e( 16 - 16) =     16.68237  eV     1   --> A''            
     e( 17 - 17) =     18.95465  eV     1   --> A'             
     e( 18 - 18) =     20.71354  eV     1   --> A''            
     e( 19 - 19) =     21.84170  eV     1   --> A'             
     e( 20 - 20) =     22.50568  eV     1   --> A'             
     e( 21 - 21) =     23.12202  eV     1   --> A''            
     e( 22 - 22) =     23.48178  eV     1   --> A''            
     e( 23 - 23) =     23.76624  eV     1   --> A'             
     e( 24 - 24) =     24.87362  eV     1   --> A'             
     e( 25 - 25) =     25.40866  eV     1   --> A'             
     e( 26 - 26) =     25.85015  eV     1   --> A''            
     e( 27 - 27) =     28.76629  eV     1   --> A'             
     e( 28 - 28) =     28.92252  eV     1   --> A''            
     e( 29 - 29) =     29.05356  eV     1   --> A'             
     e( 30 - 30) =     29.44542  eV     1   --> A'             

 **************************************************************************

 **************************************************************************

                    xk=(   0.36750,   0.21218,   0.60012  )

     Band symmetry, C_s (m)     point group:

     e(  1 -  1) =    -17.68198  eV     1   --> A'             
     e(  2 -  2) =    -17.67854  eV     1   --> A''            
     e(  3 -  3) =    -17.67370  eV     1   --> A'             
     e(  4 -  4) =    -17.67153  eV     1   --> A'             
     e(  5 -  5) =    -17.67099  eV     1   --> A''            
     e(  6 -  6) =     -3.66392  eV     1   --> A'             
     e(  7 -  7) =     -0.98672  eV     1   --> A'             
     e(  8 -  8) =      2.14470  eV     1   --> A'             
     e(  9 -  9) =      4.31152  eV     1   --> A''            
     e( 10 - 10) =      4.65787  eV     1   --> A'             
     e( 11 - 11) =     10.35175  eV     1   --> A''            
     e( 12 - 12) =     10.79040  eV     1   --> A'             
     e( 13 - 13) =     11.95109  eV     1   --> A'             
     e( 14 - 14) =     13.48039  eV     1   --> A'             
     e( 15 - 15) =     15.78253  eV     1   --> A'             
     e( 16 - 16) =     16.85534  eV     1   --> A''            
     e( 17 - 17) =     19.10138  eV     1   --> A'             
     e( 18 - 18) =     20.42127  eV     1   --> A''            
     e( 19 - 19) =     21.69220  eV     1   --> A'             
     e( 20 - 20) =     22.46977  eV     1   --> A'             
     e( 21 - 21) =     23.05570  eV     1   --> A''            
     e( 22 - 22) =     23.41773  eV     1   --> A''            
     e( 23 - 23) =     23.73222  eV     1   --> A'             
     e( 24 - 24) =     24.56651  eV     1   --> A'             
     e( 25 - 25) =     25.54832  eV     1   --> A''            
     e( 26 - 26) =     25.68501  eV     1   --> A'             
     e( 27 - 27) =     28.80223  eV     1   --> A'             
     e( 28 - 28) =     29.18519  eV     1   --> A'             
     e( 29 - 29) =     29.23824  eV     1   --> A'             
     e( 30 - 30) =     29.31011  eV     1   --> A''            

 **************************************************************************

 **************************************************************************

                    xk=(   0.37500,   0.21651,   0.61237  )

     Band symmetry, C_s (m)     point group:

     e(  1 -  1) =    -17.68210  eV     1   --> A'             
     e(  2 -  2) =    -17.67844  eV     1   --> A''            
     e(  3 -  3) =    -17.67381  eV     1   --> A'             
     e(  4 -  4) =    -17.67144  eV     1   --> A'             
     e(  5 -  5) =    -17.67094  eV     1   --> A''            
     e(  6 -  6) =     -3.66459  eV     1   --> A'             
     e(  7 -  7) =     -0.92445  eV     1   --> A'             
     e(  8 -  8) =      2.09258  eV     1   --> A'             
     e(  9 -  9) =      4.24820  eV     1   --> A''            
     e( 10 - 10) =      4.57414  eV     1   --> A'             
     e( 11 - 11) =     10.51573  eV     1   --> A''            
     e( 12 - 12) =     10.90481  eV     1   --> A'             
     e( 13 - 13) =     11.75933  eV     1   --> A'             
     e( 14 - 14) =     13.55754  eV     1   --> A'             
     e( 15 - 15) =     15.95842  eV     1   --> A'             
     e( 16 - 16) =     17.03160  eV     1   --> A''            
     e( 17 - 17) =     19.24919  eV     1   --> A'             
     e( 18 - 18) =     20.13475  eV     1   --> A''            
     e( 19 - 19) =     21.51965  eV     1   --> A'             
     e( 20 - 20) =     22.43725  eV     1   --> A'             
     e( 21 - 21) =     22.99253  eV     1   --> A''            
     e( 22 - 22) =     23.35676  eV     1   --> A''            
     e( 23 - 23) =     23.69312  eV     1   --> A'             
     e( 24 - 24) =     24.26489  eV     1   --> A'             
     e( 25 - 25) =     25.25074  eV     1   --> A''            
     e( 26 - 26) =     25.99697  eV     1   --> A'             
     e( 27 - 27) =     28.56228  eV     1   --> A'             
     e( 28 - 28) =     29.01543  eV     1   --> A'             
     e( 29 - 29) =     29.60496  eV     1   --> A'             
     e( 30 - 30) =     29.69963  eV     1   --> A''            

 **************************************************************************

     BANDS        :      5.62s CPU      6.20s WALL


   This run was terminated on:  18:16:53   1Jan2023            

=------------------------------------------------------------------------------=
   JOB DONE.
=------------------------------------------------------------------------------=
