
     Program BANDS v.7.0 starts on  3Feb2022 at 10:49:12 

     This program is part of the open-source Quantum ESPRESSO suite
     for quantum simulation of materials; please cite
         "P. Giannozzi et al., J. Phys.:Condens. Matter 21 395502 (2009);
         "P. Giannozzi et al., J. Phys.:Condens. Matter 29 465901 (2017);
         "P. Giannozzi et al., J. Chem. Phys. 152 154105 (2020);
          URL http://www.quantum-espresso.org", 
     in publications or presentations arising from this work. More details at
     http://www.quantum-espresso.org/quote

     Parallel version (MPI), running on     4 processors

     MPI processes distributed on     1 nodes
     R & G space division:  proc/nbgrp/npool/nimage =       4
     234382 MiB available memory on the printing compute node when the environment starts
 

     Reading xml data from directory:

     ../tmp/bi-gr.save/

     IMPORTANT: XC functional enforced from input :
     Exchange-correlation= VDW-DF2
                           (   1   4  13   0   2   0   0)
     Any further DFT definition will be discarded
     Please, verify this is what you really want

 
     Parallelization info
     --------------------
     sticks:   dense  smooth     PW     G-vecs:    dense   smooth      PW
     Min         124     124     37                17474    17474    2911
     Max         126     126     38                17490    17490    2928
     Sum         499     499    151                69929    69929   11693
 
     Using Slab Decomposition
 

     Check: negative core charge=   -0.000001

     negative rho (up, down):  3.033E-05 0.000E+00


     %%%%%%%%%%%%%%%%%%%%%%%%%%%%%%%%%%%%%%%%%%%%%%%%%%%%%%%%%%%%%%%%%%%%%%%%
     %                                                                      %
     % You are using vdW-DF, which was implemented by the Thonhauser group. %
     % Please cite the following two papers that made this development      %
     % possible and the two reviews that describe the various versions:     %
     %                                                                      %
     %   T. Thonhauser et al., PRL 115, 136402 (2015).                      %
     %   T. Thonhauser et al., PRB 76, 125112 (2007).                       %
     %   K. Berland et al., Rep. Prog. Phys. 78, 066501 (2015).             %
     %   D.C. Langreth et al., J. Phys.: Condens. Matter 21, 084203 (2009). %
     %                                                                      %
     %                                                                      %
     % If you are calculating the stress with vdW-DF, please also cite:     %
     %                                                                      %
     %   R. Sabatini et al., J. Phys.: Condens. Matter 24, 424209 (2012).   %
     %                                                                      %
     %%%%%%%%%%%%%%%%%%%%%%%%%%%%%%%%%%%%%%%%%%%%%%%%%%%%%%%%%%%%%%%%%%%%%%%%


 
     Adding external electric field

     Computed dipole along edir(3) : 
        Dipole                0.1256 Ry au,          0.3192 Debye
        Dipole field          0.0022 Ry au, 
 
        E field amplitude [Ha a.u.]:  9.7235E-03
        Potential amp.        0.5413 Ry
        Total length         35.9048 bohr
 
     Reading collected, re-writing distributed wavefunctions
     high-symmetry point:  0.0000 0.0000 0.0000   x coordinate   0.0000
     high-symmetry point:  0.6667 0.0000 0.0000   x coordinate   0.6667
     high-symmetry point:  0.5000 0.2887 0.0000   x coordinate   1.0000
     high-symmetry point:  0.0000 0.0000 0.0000   x coordinate   1.5774

     Plottable bands (eV) written to file bi-gr.bands.gnu
     Bands written to file bi-gr.bands

 **************************************************************************

                    xk=(   0.00000,   0.00000,   0.00000  )

     point group C_1 (1)    
     there are  1 classes
     the character table:

       E    
A      1.00

     the symmetry operations in each class and the name of the first element:

     E        1
                                                                 

     Band symmetry, C_1 (1)     point group:

     e(  1 -  1) =    -20.43884  eV     1   --> A              
     e(  2 -  2) =    -19.82574  eV     1   --> A              
     e(  3 -  3) =     -8.78572  eV     1   --> A              
     e(  4 -  4) =     -7.78725  eV     1   --> A              
     e(  5 -  6) =     -4.43810  eV     2   -->   2 A              
     e(  7 -  8) =     -3.83681  eV     2   -->   2 A              
     e(  9 -  9) =      0.72366  eV     1   --> A              
     e( 10 - 10) =      1.91053  eV     1   --> A              
     e( 11 - 11) =      3.06858  eV     1   --> A              
     e( 12 - 12) =      4.51713  eV     1   --> A              
     e( 13 - 13) =      5.47726  eV     1   --> A              
     e( 14 - 14) =      6.84339  eV     1   --> A              
     e( 15 - 16) =      7.09513  eV     2   -->   2 A              
     e( 17 - 18) =      7.69805  eV     2   -->   2 A              
     e( 19 - 19) =      8.07852  eV     1   --> A              
     e( 20 - 20) =      9.90127  eV     1   --> A              
     e( 21 - 21) =     10.05210  eV     1   --> A              
     e( 22 - 22) =     10.50548  eV     1   --> A              
     e( 23 - 23) =     10.78398  eV     1   --> A              
     e( 24 - 24) =     11.39000  eV     1   --> A              
     e( 25 - 25) =     11.91782  eV     1   --> A              
     e( 26 - 26) =     14.74733  eV     1   --> A              
     e( 27 - 27) =     16.42648  eV     1   --> A              
     e( 28 - 28) =     19.71484  eV     1   --> A              
     e( 29 - 29) =     20.53474  eV     1   --> A              
     e( 30 - 30) =     21.66187  eV     1   --> A              

 **************************************************************************

 **************************************************************************

                    xk=(   0.01667,   0.00000,   0.00000  )

     Band symmetry, C_1 (1)     point group:

     e(  1 -  1) =    -20.43403  eV     1   --> A              
     e(  2 -  2) =    -19.82094  eV     1   --> A              
     e(  3 -  3) =     -8.77990  eV     1   --> A              
     e(  4 -  4) =     -7.78156  eV     1   --> A              
     e(  5 -  5) =     -4.45768  eV     1   --> A              
     e(  6 -  6) =     -4.44820  eV     1   --> A              
     e(  7 -  7) =     -3.85639  eV     1   --> A              
     e(  8 -  8) =     -3.84691  eV     1   --> A              
     e(  9 -  9) =      0.73034  eV     1   --> A              
     e( 10 - 10) =      1.91714  eV     1   --> A              
     e( 11 - 11) =      3.07502  eV     1   --> A              
     e( 12 - 12) =      4.52354  eV     1   --> A              
     e( 13 - 13) =      5.48356  eV     1   --> A              
     e( 14 - 14) =      6.84966  eV     1   --> A              
     e( 15 - 15) =      7.09862  eV     1   --> A              
     e( 16 - 16) =      7.11554  eV     1   --> A              
     e( 17 - 17) =      7.70134  eV     1   --> A              
     e( 18 - 18) =      7.71846  eV     1   --> A              
     e( 19 - 19) =      8.08530  eV     1   --> A              
     e( 20 - 20) =      9.88476  eV     1   --> A              
     e( 21 - 21) =     10.05838  eV     1   --> A              
     e( 22 - 22) =     10.48947  eV     1   --> A              
     e( 23 - 23) =     10.79199  eV     1   --> A              
     e( 24 - 24) =     11.39840  eV     1   --> A              
     e( 25 - 25) =     11.92435  eV     1   --> A              
     e( 26 - 26) =     14.75340  eV     1   --> A              
     e( 27 - 27) =     16.43262  eV     1   --> A              
     e( 28 - 28) =     19.71699  eV     1   --> A              
     e( 29 - 29) =     20.54007  eV     1   --> A              
     e( 30 - 30) =     21.67586  eV     1   --> A              

 **************************************************************************

 **************************************************************************

                    xk=(   0.03333,   0.00000,   0.00000  )

     Band symmetry, C_1 (1)     point group:

     e(  1 -  1) =    -20.41961  eV     1   --> A              
     e(  2 -  2) =    -19.80654  eV     1   --> A              
     e(  3 -  3) =     -8.76243  eV     1   --> A              
     e(  4 -  4) =     -7.76448  eV     1   --> A              
     e(  5 -  5) =     -4.51588  eV     1   --> A              
     e(  6 -  6) =     -4.47842  eV     1   --> A              
     e(  7 -  7) =     -3.91456  eV     1   --> A              
     e(  8 -  8) =     -3.87712  eV     1   --> A              
     e(  9 -  9) =      0.75039  eV     1   --> A              
     e( 10 - 10) =      1.93699  eV     1   --> A              
     e( 11 - 11) =      3.09433  eV     1   --> A              
     e( 12 - 12) =      4.54278  eV     1   --> A              
     e( 13 - 13) =      5.50248  eV     1   --> A              
     e( 14 - 14) =      6.86845  eV     1   --> A              
     e( 15 - 15) =      7.10920  eV     1   --> A              
     e( 16 - 16) =      7.17595  eV     1   --> A              
     e( 17 - 17) =      7.71131  eV     1   --> A              
     e( 18 - 18) =      7.77886  eV     1   --> A              
     e( 19 - 19) =      8.10558  eV     1   --> A              
     e( 20 - 20) =      9.83536  eV     1   --> A              
     e( 21 - 21) =     10.07721  eV     1   --> A              
     e( 22 - 22) =     10.44129  eV     1   --> A              
     e( 23 - 23) =     10.81663  eV     1   --> A              
     e( 24 - 24) =     11.42389  eV     1   --> A              
     e( 25 - 25) =     11.94391  eV     1   --> A              
     e( 26 - 26) =     14.77160  eV     1   --> A              
     e( 27 - 27) =     16.45101  eV     1   --> A              
     e( 28 - 28) =     19.72317  eV     1   --> A              
     e( 29 - 29) =     20.55597  eV     1   --> A              
     e( 30 - 30) =     21.71748  eV     1   --> A              

 **************************************************************************

 **************************************************************************

                    xk=(   0.05000,   0.00000,   0.00000  )

     Band symmetry, C_1 (1)     point group:

     e(  1 -  1) =    -20.39558  eV     1   --> A              
     e(  2 -  2) =    -19.78254  eV     1   --> A              
     e(  3 -  3) =     -8.73333  eV     1   --> A              
     e(  4 -  4) =     -7.73604  eV     1   --> A              
     e(  5 -  5) =     -4.61111  eV     1   --> A              
     e(  6 -  6) =     -4.52851  eV     1   --> A              
     e(  7 -  7) =     -4.00975  eV     1   --> A              
     e(  8 -  8) =     -3.92719  eV     1   --> A              
     e(  9 -  9) =      0.78381  eV     1   --> A              
     e( 10 - 10) =      1.97006  eV     1   --> A              
     e( 11 - 11) =      3.12652  eV     1   --> A              
     e( 12 - 12) =      4.57484  eV     1   --> A              
     e( 13 - 13) =      5.53399  eV     1   --> A              
     e( 14 - 14) =      6.89973  eV     1   --> A              
     e( 15 - 15) =      7.12703  eV     1   --> A              
     e( 16 - 16) =      7.27389  eV     1   --> A              
     e( 17 - 17) =      7.72816  eV     1   --> A              
     e( 18 - 18) =      7.87679  eV     1   --> A              
     e( 19 - 19) =      8.13931  eV     1   --> A              
     e( 20 - 20) =      9.75361  eV     1   --> A              
     e( 21 - 21) =     10.10859  eV     1   --> A              
     e( 22 - 22) =     10.36093  eV     1   --> A              
     e( 23 - 23) =     10.85921  eV     1   --> A              
     e( 24 - 24) =     11.46730  eV     1   --> A              
     e( 25 - 25) =     11.97650  eV     1   --> A              
     e( 26 - 26) =     14.80187  eV     1   --> A              
     e( 27 - 27) =     16.48160  eV     1   --> A              
     e( 28 - 28) =     19.73248  eV     1   --> A              
     e( 29 - 29) =     20.58217  eV     1   --> A              
     e( 30 - 30) =     21.78561  eV     1   --> A              

 **************************************************************************

 **************************************************************************

                    xk=(   0.06667,   0.00000,   0.00000  )

     Band symmetry, C_1 (1)     point group:

     e(  1 -  1) =    -20.36194  eV     1   --> A              
     e(  2 -  2) =    -19.74895  eV     1   --> A              
     e(  3 -  3) =     -8.69261  eV     1   --> A              
     e(  4 -  4) =     -7.69625  eV     1   --> A              
     e(  5 -  5) =     -4.74091  eV     1   --> A              
     e(  6 -  6) =     -4.59805  eV     1   --> A              
     e(  7 -  7) =     -4.13950  eV     1   --> A              
     e(  8 -  8) =     -3.99670  eV     1   --> A              
     e(  9 -  9) =      0.83058  eV     1   --> A              
     e( 10 - 10) =      2.01636  eV     1   --> A              
     e( 11 - 11) =      3.17159  eV     1   --> A              
     e( 12 - 12) =      4.61972  eV     1   --> A              
     e( 13 - 13) =      5.57810  eV     1   --> A              
     e( 14 - 14) =      6.94343  eV     1   --> A              
     e( 15 - 15) =      7.15244  eV     1   --> A              
     e( 16 - 16) =      7.40542  eV     1   --> A              
     e( 17 - 17) =      7.75221  eV     1   --> A              
     e( 18 - 18) =      8.00831  eV     1   --> A              
     e( 19 - 19) =      8.18637  eV     1   --> A              
     e( 20 - 20) =      9.64039  eV     1   --> A              
     e( 21 - 21) =     10.15239  eV     1   --> A              
     e( 22 - 22) =     10.24916  eV     1   --> A              
     e( 23 - 23) =     10.92129  eV     1   --> A              
     e( 24 - 24) =     11.52999  eV     1   --> A              
     e( 25 - 25) =     12.02207  eV     1   --> A              
     e( 26 - 26) =     14.84414  eV     1   --> A              
     e( 27 - 27) =     16.52426  eV     1   --> A              
     e( 28 - 28) =     19.74334  eV     1   --> A              
     e( 29 - 29) =     20.61816  eV     1   --> A              
     e( 30 - 30) =     21.87832  eV     1   --> A              

 **************************************************************************

 **************************************************************************

                    xk=(   0.08333,   0.00000,   0.00000  )

     Band symmetry, C_1 (1)     point group:

     e(  1 -  1) =    -20.31872  eV     1   --> A              
     e(  2 -  2) =    -19.70579  eV     1   --> A              
     e(  3 -  3) =     -8.64032  eV     1   --> A              
     e(  4 -  4) =     -7.64515  eV     1   --> A              
     e(  5 -  5) =     -4.90218  eV     1   --> A              
     e(  6 -  6) =     -4.68647  eV     1   --> A              
     e(  7 -  7) =     -4.30070  eV     1   --> A              
     e(  8 -  8) =     -4.08509  eV     1   --> A              
     e(  9 -  9) =      0.89072  eV     1   --> A              
     e( 10 - 10) =      2.07590  eV     1   --> A              
     e( 11 - 11) =      3.22952  eV     1   --> A              
     e( 12 - 12) =      4.67740  eV     1   --> A              
     e( 13 - 13) =      5.63479  eV     1   --> A              
     e( 14 - 14) =      6.99941  eV     1   --> A              
     e( 15 - 15) =      7.18585  eV     1   --> A              
     e( 16 - 16) =      7.56535  eV     1   --> A              
     e( 17 - 17) =      7.78386  eV     1   --> A              
     e( 18 - 18) =      8.16825  eV     1   --> A              
     e( 19 - 19) =      8.24664  eV     1   --> A              
     e( 20 - 20) =      9.49694  eV     1   --> A              
     e( 21 - 21) =     10.10637  eV     1   --> A              
     e( 22 - 22) =     10.20937  eV     1   --> A              
     e( 23 - 23) =     11.00473  eV     1   --> A              
     e( 24 - 24) =     11.61385  eV     1   --> A              
     e( 25 - 25) =     12.08060  eV     1   --> A              
     e( 26 - 26) =     14.89830  eV     1   --> A              
     e( 27 - 27) =     16.57886  eV     1   --> A              
     e( 28 - 28) =     19.75317  eV     1   --> A              
     e( 29 - 29) =     20.66310  eV     1   --> A              
     e( 30 - 30) =     21.99274  eV     1   --> A              

 **************************************************************************

 **************************************************************************

                    xk=(   0.10000,   0.00000,   0.00000  )

     Band symmetry, C_1 (1)     point group:

     e(  1 -  1) =    -20.26592  eV     1   --> A              
     e(  2 -  2) =    -19.65306  eV     1   --> A              
     e(  3 -  3) =     -8.57648  eV     1   --> A              
     e(  4 -  4) =     -7.58278  eV     1   --> A              
     e(  5 -  5) =     -5.09145  eV     1   --> A              
     e(  6 -  6) =     -4.79307  eV     1   --> A              
     e(  7 -  7) =     -4.48988  eV     1   --> A              
     e(  8 -  8) =     -4.19163  eV     1   --> A              
     e(  9 -  9) =      0.96423  eV     1   --> A              
     e( 10 - 10) =      2.14865  eV     1   --> A              
     e( 11 - 11) =      3.30033  eV     1   --> A              
     e( 12 - 12) =      4.74788  eV     1   --> A              
     e( 13 - 13) =      5.70405  eV     1   --> A              
     e( 14 - 14) =      7.06742  eV     1   --> A              
     e( 15 - 15) =      7.22787  eV     1   --> A              
     e( 16 - 16) =      7.74744  eV     1   --> A              
     e( 17 - 17) =      7.82361  eV     1   --> A              
     e( 18 - 18) =      8.32001  eV     1   --> A              
     e( 19 - 19) =      8.35048  eV     1   --> A              
     e( 20 - 20) =      9.32480  eV     1   --> A              
     e( 21 - 21) =      9.93551  eV     1   --> A              
     e( 22 - 22) =     10.27810  eV     1   --> A              
     e( 23 - 23) =     11.11186  eV     1   --> A              
     e( 24 - 24) =     11.72127  eV     1   --> A              
     e( 25 - 25) =     12.15202  eV     1   --> A              
     e( 26 - 26) =     14.96418  eV     1   --> A              
     e( 27 - 27) =     16.64517  eV     1   --> A              
     e( 28 - 28) =     19.75801  eV     1   --> A              
     e( 29 - 29) =     20.71562  eV     1   --> A              
     e( 30 - 30) =     22.12487  eV     1   --> A              

 **************************************************************************

 **************************************************************************

                    xk=(   0.11667,   0.00000,   0.00000  )

     Band symmetry, C_1 (1)     point group:

     e(  1 -  1) =    -20.20357  eV     1   --> A              
     e(  2 -  2) =    -19.59079  eV     1   --> A              
     e(  3 -  3) =     -8.50114  eV     1   --> A              
     e(  4 -  4) =     -7.50919  eV     1   --> A              
     e(  5 -  5) =     -5.30508  eV     1   --> A              
     e(  6 -  6) =     -4.91700  eV     1   --> A              
     e(  7 -  7) =     -4.70341  eV     1   --> A              
     e(  8 -  8) =     -4.31550  eV     1   --> A              
     e(  9 -  9) =      1.05108  eV     1   --> A              
     e( 10 - 10) =      2.23464  eV     1   --> A              
     e( 11 - 11) =      3.38399  eV     1   --> A              
     e( 12 - 12) =      4.83115  eV     1   --> A              
     e( 13 - 13) =      5.78584  eV     1   --> A              
     e( 14 - 14) =      7.14694  eV     1   --> A              
     e( 15 - 15) =      7.27938  eV     1   --> A              
     e( 16 - 16) =      7.87113  eV     1   --> A              
     e( 17 - 17) =      7.94562  eV     1   --> A              
     e( 18 - 18) =      8.40638  eV     1   --> A              
     e( 19 - 19) =      8.54817  eV     1   --> A              
     e( 20 - 20) =      9.12582  eV     1   --> A              
     e( 21 - 21) =      9.73759  eV     1   --> A              
     e( 22 - 22) =     10.35933  eV     1   --> A              
     e( 23 - 23) =     11.24538  eV     1   --> A              
     e( 24 - 24) =     11.85500  eV     1   --> A              
     e( 25 - 25) =     12.23628  eV     1   --> A              
     e( 26 - 26) =     15.04157  eV     1   --> A              
     e( 27 - 27) =     16.72294  eV     1   --> A              
     e( 28 - 28) =     19.75181  eV     1   --> A              
     e( 29 - 29) =     20.77346  eV     1   --> A              
     e( 30 - 30) =     22.26913  eV     1   --> A              

 **************************************************************************

 **************************************************************************

                    xk=(   0.13333,   0.00000,   0.00000  )

     Band symmetry, C_1 (1)     point group:

     e(  1 -  1) =    -20.13169  eV     1   --> A              
     e(  2 -  2) =    -19.51899  eV     1   --> A              
     e(  3 -  3) =     -8.41437  eV     1   --> A              
     e(  4 -  4) =     -7.42445  eV     1   --> A              
     e(  5 -  5) =     -5.53950  eV     1   --> A              
     e(  6 -  6) =     -5.05737  eV     1   --> A              
     e(  7 -  7) =     -4.93765  eV     1   --> A              
     e(  8 -  8) =     -4.45572  eV     1   --> A              
     e(  9 -  9) =      1.15129  eV     1   --> A              
     e( 10 - 10) =      2.33384  eV     1   --> A              
     e( 11 - 11) =      3.48050  eV     1   --> A              
     e( 12 - 12) =      4.92718  eV     1   --> A              
     e( 13 - 13) =      5.88013  eV     1   --> A              
     e( 14 - 14) =      7.23677  eV     1   --> A              
     e( 15 - 15) =      7.34191  eV     1   --> A              
     e( 16 - 16) =      7.92795  eV     1   --> A              
     e( 17 - 17) =      8.15165  eV     1   --> A              
     e( 18 - 18) =      8.50567  eV     1   --> A              
     e( 19 - 19) =      8.75403  eV     1   --> A              
     e( 20 - 20) =      8.90241  eV     1   --> A              
     e( 21 - 21) =      9.51481  eV     1   --> A              
     e( 22 - 22) =     10.45286  eV     1   --> A              
     e( 23 - 23) =     11.40822  eV     1   --> A              
     e( 24 - 24) =     12.01800  eV     1   --> A              
     e( 25 - 25) =     12.33331  eV     1   --> A              
     e( 26 - 26) =     15.13018  eV     1   --> A              
     e( 27 - 27) =     16.81179  eV     1   --> A              
     e( 28 - 28) =     19.72555  eV     1   --> A              
     e( 29 - 29) =     20.83256  eV     1   --> A              
     e( 30 - 30) =     22.41754  eV     1   --> A              

 **************************************************************************

 **************************************************************************

                    xk=(   0.15000,   0.00000,   0.00000  )

     Band symmetry, C_1 (1)     point group:

     e(  1 -  1) =    -20.05030  eV     1   --> A              
     e(  2 -  2) =    -19.43771  eV     1   --> A              
     e(  3 -  3) =     -8.31623  eV     1   --> A              
     e(  4 -  4) =     -7.32864  eV     1   --> A              
     e(  5 -  5) =     -5.79131  eV     1   --> A              
     e(  6 -  6) =     -5.21387  eV     1   --> A              
     e(  7 -  7) =     -5.18846  eV     1   --> A              
     e(  8 -  8) =     -4.61126  eV     1   --> A              
     e(  9 -  9) =      1.26484  eV     1   --> A              
     e( 10 - 10) =      2.44627  eV     1   --> A              
     e( 11 - 11) =      3.58984  eV     1   --> A              
     e( 12 - 12) =      5.03593  eV     1   --> A              
     e( 13 - 13) =      5.98687  eV     1   --> A              
     e( 14 - 14) =      7.33402  eV     1   --> A              
     e( 15 - 15) =      7.41866  eV     1   --> A              
     e( 16 - 16) =      7.99333  eV     1   --> A              
     e( 17 - 17) =      8.35939  eV     1   --> A              
     e( 18 - 18) =      8.61764  eV     1   --> A              
     e( 19 - 19) =      8.65589  eV     1   --> A              
     e( 20 - 20) =      8.96253  eV     1   --> A              
     e( 21 - 21) =      9.26961  eV     1   --> A              
     e( 22 - 22) =     10.55855  eV     1   --> A              
     e( 23 - 23) =     11.60313  eV     1   --> A              
     e( 24 - 24) =     12.21301  eV     1   --> A              
     e( 25 - 25) =     12.44306  eV     1   --> A              
     e( 26 - 26) =     15.22962  eV     1   --> A              
     e( 27 - 27) =     16.91120  eV     1   --> A              
     e( 28 - 28) =     19.66630  eV     1   --> A              
     e( 29 - 29) =     20.88530  eV     1   --> A              
     e( 30 - 30) =     22.55183  eV     1   --> A              

 **************************************************************************

 **************************************************************************

                    xk=(   0.16667,   0.00000,   0.00000  )

     Band symmetry, C_1 (1)     point group:

     e(  1 -  1) =    -19.95943  eV     1   --> A              
     e(  2 -  2) =    -19.34696  eV     1   --> A              
     e(  3 -  3) =     -8.20679  eV     1   --> A              
     e(  4 -  4) =     -7.22185  eV     1   --> A              
     e(  5 -  5) =     -6.05735  eV     1   --> A              
     e(  6 -  6) =     -5.45596  eV     1   --> A              
     e(  7 -  7) =     -5.38211  eV     1   --> A              
     e(  8 -  8) =     -4.78100  eV     1   --> A              
     e(  9 -  9) =      1.39173  eV     1   --> A              
     e( 10 - 10) =      2.57190  eV     1   --> A              
     e( 11 - 11) =      3.71199  eV     1   --> A              
     e( 12 - 12) =      5.15738  eV     1   --> A              
     e( 13 - 13) =      6.10602  eV     1   --> A              
     e( 14 - 14) =      7.43337  eV     1   --> A              
     e( 15 - 15) =      7.51514  eV     1   --> A              
     e( 16 - 16) =      8.06564  eV     1   --> A              
     e( 17 - 17) =      8.39078  eV     1   --> A              
     e( 18 - 18) =      8.56386  eV     1   --> A              
     e( 19 - 19) =      8.74283  eV     1   --> A              
     e( 20 - 20) =      9.00197  eV     1   --> A              
     e( 21 - 21) =      9.16826  eV     1   --> A              
     e( 22 - 22) =     10.67626  eV     1   --> A              
     e( 23 - 23) =     11.83216  eV     1   --> A              
     e( 24 - 24) =     12.44206  eV     1   --> A              
     e( 25 - 25) =     12.56550  eV     1   --> A              
     e( 26 - 26) =     15.33938  eV     1   --> A              
     e( 27 - 27) =     17.02039  eV     1   --> A              
     e( 28 - 28) =     19.55777  eV     1   --> A              
     e( 29 - 29) =     20.91640  eV     1   --> A              
     e( 30 - 30) =     22.30641  eV     1   --> A              

 **************************************************************************

 **************************************************************************

                    xk=(   0.18333,   0.00000,   0.00000  )

     Band symmetry, C_1 (1)     point group:

     e(  1 -  1) =    -19.85913  eV     1   --> A              
     e(  2 -  2) =    -19.24679  eV     1   --> A              
     e(  3 -  3) =     -8.08615  eV     1   --> A              
     e(  4 -  4) =     -7.10417  eV     1   --> A              
     e(  5 -  5) =     -6.33478  eV     1   --> A              
     e(  6 -  6) =     -5.73310  eV     1   --> A              
     e(  7 -  7) =     -5.56513  eV     1   --> A              
     e(  8 -  8) =     -4.96375  eV     1   --> A              
     e(  9 -  9) =      1.53195  eV     1   --> A              
     e( 10 - 10) =      2.71073  eV     1   --> A              
     e( 11 - 11) =      3.84693  eV     1   --> A              
     e( 12 - 12) =      5.29146  eV     1   --> A              
     e( 13 - 13) =      6.23748  eV     1   --> A              
     e( 14 - 14) =      7.53209  eV     1   --> A              
     e( 15 - 15) =      7.63411  eV     1   --> A              
     e( 16 - 16) =      8.07071  eV     1   --> A              
     e( 17 - 17) =      8.18579  eV     1   --> A              
     e( 18 - 18) =      8.71252  eV     1   --> A              
     e( 19 - 19) =      8.76486  eV     1   --> A              
     e( 20 - 20) =      8.88057  eV     1   --> A              
     e( 21 - 21) =      9.36275  eV     1   --> A              
     e( 22 - 22) =     10.80581  eV     1   --> A              
     e( 23 - 23) =     12.09623  eV     1   --> A              
     e( 24 - 24) =     12.69668  eV     1   --> A              
     e( 25 - 25) =     12.70993  eV     1   --> A              
     e( 26 - 26) =     15.45872  eV     1   --> A              
     e( 27 - 27) =     17.13799  eV     1   --> A              
     e( 28 - 28) =     19.38463  eV     1   --> A              
     e( 29 - 29) =     20.89578  eV     1   --> A              
     e( 30 - 30) =     22.05331  eV     1   --> A              

 **************************************************************************

 **************************************************************************

                    xk=(   0.20000,   0.00000,   0.00000  )

     Band symmetry, C_1 (1)     point group:

     e(  1 -  1) =    -19.74944  eV     1   --> A              
     e(  2 -  2) =    -19.13723  eV     1   --> A              
     e(  3 -  3) =     -7.95442  eV     1   --> A              
     e(  4 -  4) =     -6.97575  eV     1   --> A              
     e(  5 -  5) =     -6.62106  eV     1   --> A              
     e(  6 -  6) =     -6.01926  eV     1   --> A              
     e(  7 -  7) =     -5.75979  eV     1   --> A              
     e(  8 -  8) =     -5.15830  eV     1   --> A              
     e(  9 -  9) =      1.68548  eV     1   --> A              
     e( 10 - 10) =      2.86276  eV     1   --> A              
     e( 11 - 11) =      3.99461  eV     1   --> A              
     e( 12 - 12) =      5.43810  eV     1   --> A              
     e( 13 - 13) =      6.38116  eV     1   --> A              
     e( 14 - 14) =      7.63341  eV     1   --> A              
     e( 15 - 15) =      7.76960  eV     1   --> A              
     e( 16 - 16) =      7.79204  eV     1   --> A              
     e( 17 - 17) =      8.26035  eV     1   --> A              
     e( 18 - 18) =      8.41836  eV     1   --> A              
     e( 19 - 19) =      8.94345  eV     1   --> A              
     e( 20 - 20) =      9.03100  eV     1   --> A              
     e( 21 - 21) =      9.54649  eV     1   --> A              
     e( 22 - 22) =     10.94697  eV     1   --> A              
     e( 23 - 23) =     12.39470  eV     1   --> A              
     e( 24 - 24) =     12.84708  eV     1   --> A              
     e( 25 - 25) =     13.00544  eV     1   --> A              
     e( 26 - 26) =     15.58663  eV     1   --> A              
     e( 27 - 27) =     17.26134  eV     1   --> A              
     e( 28 - 28) =     19.14147  eV     1   --> A              
     e( 29 - 29) =     20.77813  eV     1   --> A              
     e( 30 - 30) =     21.89329  eV     1   --> A              

 **************************************************************************

 **************************************************************************

                    xk=(   0.21667,   0.00000,   0.00000  )

     Band symmetry, C_1 (1)     point group:

     e(  1 -  1) =    -19.63039  eV     1   --> A              
     e(  2 -  2) =    -19.01833  eV     1   --> A              
     e(  3 -  3) =     -7.81171  eV     1   --> A              
     e(  4 -  4) =     -6.91424  eV     1   --> A              
     e(  5 -  5) =     -6.83642  eV     1   --> A              
     e(  6 -  6) =     -6.31208  eV     1   --> A              
     e(  7 -  7) =     -5.96500  eV     1   --> A              
     e(  8 -  8) =     -5.36342  eV     1   --> A              
     e(  9 -  9) =      1.85232  eV     1   --> A              
     e( 10 - 10) =      3.02796  eV     1   --> A              
     e( 11 - 11) =      4.15500  eV     1   --> A              
     e( 12 - 12) =      5.59723  eV     1   --> A              
     e( 13 - 13) =      6.53695  eV     1   --> A              
     e( 14 - 14) =      7.47515  eV     1   --> A              
     e( 15 - 15) =      7.73823  eV     1   --> A              
     e( 16 - 16) =      7.92410  eV     1   --> A              
     e( 17 - 17) =      8.11027  eV     1   --> A              
     e( 18 - 18) =      8.36437  eV     1   --> A              
     e( 19 - 19) =      9.11413  eV     1   --> A              
     e( 20 - 20) =      9.19408  eV     1   --> A              
     e( 21 - 21) =      9.71759  eV     1   --> A              
     e( 22 - 22) =     11.09946  eV     1   --> A              
     e( 23 - 23) =     12.72538  eV     1   --> A              
     e( 24 - 24) =     13.00670  eV     1   --> A              
     e( 25 - 25) =     13.33632  eV     1   --> A              
     e( 26 - 26) =     15.72161  eV     1   --> A              
     e( 27 - 27) =     17.38422  eV     1   --> A              
     e( 28 - 28) =     18.84078  eV     1   --> A              
     e( 29 - 29) =     20.53795  eV     1   --> A              
     e( 30 - 30) =     21.81495  eV     1   --> A              

 **************************************************************************

 **************************************************************************

                    xk=(   0.23333,   0.00000,   0.00000  )

     Band symmetry, C_1 (1)     point group:

     e(  1 -  1) =    -19.50205  eV     1   --> A              
     e(  2 -  2) =    -18.89015  eV     1   --> A              
     e(  3 -  3) =     -7.65817  eV     1   --> A              
     e(  4 -  4) =     -7.21168  eV     1   --> A              
     e(  5 -  5) =     -6.68710  eV     1   --> A              
     e(  6 -  6) =     -6.60951  eV     1   --> A              
     e(  7 -  7) =     -6.17954  eV     1   --> A              
     e(  8 -  8) =     -5.57788  eV     1   --> A              
     e(  9 -  9) =      2.03245  eV     1   --> A              
     e( 10 - 10) =      3.20632  eV     1   --> A              
     e( 11 - 11) =      4.32804  eV     1   --> A              
     e( 12 - 12) =      5.76872  eV     1   --> A              
     e( 13 - 13) =      6.70468  eV     1   --> A              
     e( 14 - 14) =      7.14751  eV     1   --> A              
     e( 15 - 15) =      7.74256  eV     1   --> A              
     e( 16 - 16) =      7.89481  eV     1   --> A              
     e( 17 - 17) =      8.09419  eV     1   --> A              
     e( 18 - 18) =      8.48024  eV     1   --> A              
     e( 19 - 19) =      9.27240  eV     1   --> A              
     e( 20 - 20) =      9.36974  eV     1   --> A              
     e( 21 - 21) =      9.87616  eV     1   --> A              
     e( 22 - 22) =     11.26292  eV     1   --> A              
     e( 23 - 23) =     13.08450  eV     1   --> A              
     e( 24 - 24) =     13.17861  eV     1   --> A              
     e( 25 - 25) =     13.69607  eV     1   --> A              
     e( 26 - 26) =     15.86138  eV     1   --> A              
     e( 27 - 27) =     17.48831  eV     1   --> A              
     e( 28 - 28) =     18.51759  eV     1   --> A              
     e( 29 - 29) =     20.20423  eV     1   --> A              
     e( 30 - 30) =     21.78341  eV     1   --> A              

 **************************************************************************

 **************************************************************************

                    xk=(   0.25000,   0.00000,   0.00000  )

     Band symmetry, C_1 (1)     point group:

     e(  1 -  1) =    -19.36447  eV     1   --> A              
     e(  2 -  2) =    -18.75274  eV     1   --> A              
     e(  3 -  3) =     -7.51239  eV     1   --> A              
     e(  4 -  4) =     -7.49380  eV     1   --> A              
     e(  5 -  5) =     -6.91011  eV     1   --> A              
     e(  6 -  6) =     -6.52715  eV     1   --> A              
     e(  7 -  7) =     -6.40218  eV     1   --> A              
     e(  8 -  8) =     -5.80046  eV     1   --> A              
     e(  9 -  9) =      2.22584  eV     1   --> A              
     e( 10 - 10) =      3.39783  eV     1   --> A              
     e( 11 - 11) =      4.51366  eV     1   --> A              
     e( 12 - 12) =      5.95245  eV     1   --> A              
     e( 13 - 13) =      6.80950  eV     1   --> A              
     e( 14 - 14) =      6.88419  eV     1   --> A              
     e( 15 - 15) =      7.42860  eV     1   --> A              
     e( 16 - 16) =      8.00142  eV     1   --> A              
     e( 17 - 17) =      8.27301  eV     1   --> A              
     e( 18 - 18) =      8.60689  eV     1   --> A              
     e( 19 - 19) =      9.41928  eV     1   --> A              
     e( 20 - 20) =      9.55789  eV     1   --> A              
     e( 21 - 21) =     10.02329  eV     1   --> A              
     e( 22 - 22) =     11.43688  eV     1   --> A              
     e( 23 - 23) =     13.36087  eV     1   --> A              
     e( 24 - 24) =     13.46924  eV     1   --> A              
     e( 25 - 25) =     14.08004  eV     1   --> A              
     e( 26 - 26) =     16.00231  eV     1   --> A              
     e( 27 - 27) =     17.50965  eV     1   --> A              
     e( 28 - 28) =     18.25483  eV     1   --> A              
     e( 29 - 29) =     19.82663  eV     1   --> A              
     e( 30 - 30) =     21.76475  eV     1   --> A              

 **************************************************************************

 **************************************************************************

                    xk=(   0.26667,   0.00000,   0.00000  )

     Band symmetry, C_1 (1)     point group:

     e(  1 -  1) =    -19.21773  eV     1   --> A              
     e(  2 -  2) =    -18.60618  eV     1   --> A              
     e(  3 -  3) =     -7.81438  eV     1   --> A              
     e(  4 -  4) =     -7.31934  eV     1   --> A              
     e(  5 -  5) =     -7.21196  eV     1   --> A              
     e(  6 -  6) =     -6.63177  eV     1   --> A              
     e(  7 -  7) =     -6.35717  eV     1   --> A              
     e(  8 -  8) =     -6.02994  eV     1   --> A              
     e(  9 -  9) =      2.43249  eV     1   --> A              
     e( 10 - 10) =      3.60245  eV     1   --> A              
     e( 11 - 11) =      4.71179  eV     1   --> A              
     e( 12 - 12) =      6.14820  eV     1   --> A              
     e( 13 - 13) =      6.46342  eV     1   --> A              
     e( 14 - 14) =      7.07257  eV     1   --> A              
     e( 15 - 15) =      7.08975  eV     1   --> A              
     e( 16 - 16) =      8.13684  eV     1   --> A              
     e( 17 - 17) =      8.46465  eV     1   --> A              
     e( 18 - 18) =      8.74397  eV     1   --> A              
     e( 19 - 19) =      9.55632  eV     1   --> A              
     e( 20 - 20) =      9.75840  eV     1   --> A              
     e( 21 - 21) =     10.16058  eV     1   --> A              
     e( 22 - 22) =     11.62072  eV     1   --> A              
     e( 23 - 23) =     13.55587  eV     1   --> A              
     e( 24 - 24) =     13.87156  eV     1   --> A              
     e( 25 - 25) =     14.48268  eV     1   --> A              
     e( 26 - 26) =     16.13824  eV     1   --> A              
     e( 27 - 27) =     17.32850  eV     1   --> A              
     e( 28 - 28) =     18.18896  eV     1   --> A              
     e( 29 - 29) =     19.44296  eV     1   --> A              
     e( 30 - 30) =     21.63524  eV     1   --> A              

 **************************************************************************

 **************************************************************************

                    xk=(   0.28333,   0.00000,   0.00000  )

     Band symmetry, C_1 (1)     point group:

     e(  1 -  1) =    -19.06190  eV     1   --> A              
     e(  2 -  2) =    -18.45053  eV     1   --> A              
     e(  3 -  3) =     -8.11672  eV     1   --> A              
     e(  4 -  4) =     -7.51449  eV     1   --> A              
     e(  5 -  5) =     -7.13402  eV     1   --> A              
     e(  6 -  6) =     -6.86708  eV     1   --> A              
     e(  7 -  7) =     -6.26540  eV     1   --> A              
     e(  8 -  8) =     -6.17708  eV     1   --> A              
     e(  9 -  9) =      2.65236  eV     1   --> A              
     e( 10 - 10) =      3.82016  eV     1   --> A              
     e( 11 - 11) =      4.92229  eV     1   --> A              
     e( 12 - 12) =      6.11101  eV     1   --> A              
     e( 13 - 13) =      6.35577  eV     1   --> A              
     e( 14 - 14) =      6.73756  eV     1   --> A              
     e( 15 - 15) =      7.27768  eV     1   --> A              
     e( 16 - 16) =      8.28384  eV     1   --> A              
     e( 17 - 17) =      8.66823  eV     1   --> A              
     e( 18 - 18) =      8.89127  eV     1   --> A              
     e( 19 - 19) =      9.68529  eV     1   --> A              
     e( 20 - 20) =      9.97108  eV     1   --> A              
     e( 21 - 21) =     10.28978  eV     1   --> A              
     e( 22 - 22) =     11.81361  eV     1   --> A              
     e( 23 - 23) =     13.76133  eV     1   --> A              
     e( 24 - 24) =     14.28705  eV     1   --> A              
     e( 25 - 25) =     14.89681  eV     1   --> A              
     e( 26 - 26) =     16.25719  eV     1   --> A              
     e( 27 - 27) =     16.99594  eV     1   --> A              
     e( 28 - 28) =     18.28539  eV     1   --> A              
     e( 29 - 29) =     19.08021  eV     1   --> A              
     e( 30 - 30) =     21.12962  eV     1   --> A              

 **************************************************************************

 **************************************************************************

                    xk=(   0.30000,   0.00000,   0.00000  )

     Band symmetry, C_1 (1)     point group:

     e(  1 -  1) =    -18.89707  eV     1   --> A              
     e(  2 -  2) =    -18.28590  eV     1   --> A              
     e(  3 -  3) =     -8.41822  eV     1   --> A              
     e(  4 -  4) =     -7.81587  eV     1   --> A              
     e(  5 -  5) =     -7.10713  eV     1   --> A              
     e(  6 -  6) =     -6.93877  eV     1   --> A              
     e(  7 -  7) =     -6.50517  eV     1   --> A              
     e(  8 -  8) =     -5.98765  eV     1   --> A              
     e(  9 -  9) =      2.88542  eV     1   --> A              
     e( 10 - 10) =      4.05092  eV     1   --> A              
     e( 11 - 11) =      5.14500  eV     1   --> A              
     e( 12 - 12) =      5.75424  eV     1   --> A              
     e( 13 - 13) =      6.38245  eV     1   --> A              
     e( 14 - 14) =      6.57554  eV     1   --> A              
     e( 15 - 15) =      7.49084  eV     1   --> A              
     e( 16 - 16) =      8.44107  eV     1   --> A              
     e( 17 - 17) =      8.88328  eV     1   --> A              
     e( 18 - 18) =      9.04852  eV     1   --> A              
     e( 19 - 19) =      9.80785  eV     1   --> A              
     e( 20 - 20) =     10.19566  eV     1   --> A              
     e( 21 - 21) =     10.41253  eV     1   --> A              
     e( 22 - 22) =     12.01445  eV     1   --> A              
     e( 23 - 23) =     13.97625  eV     1   --> A              
     e( 24 - 24) =     14.70812  eV     1   --> A              
     e( 25 - 25) =     15.30961  eV     1   --> A              
     e( 26 - 26) =     16.32318  eV     1   --> A              
     e( 27 - 27) =     16.65262  eV     1   --> A              
     e( 28 - 28) =     18.44060  eV     1   --> A              
     e( 29 - 29) =     18.76395  eV     1   --> A              
     e( 30 - 30) =     20.59935  eV     1   --> A              

 **************************************************************************

 **************************************************************************

                    xk=(   0.31667,   0.00000,   0.00000  )

     Band symmetry, C_1 (1)     point group:

     e(  1 -  1) =    -18.72333  eV     1   --> A              
     e(  2 -  2) =    -18.11237  eV     1   --> A              
     e(  3 -  3) =     -8.71791  eV     1   --> A              
     e(  4 -  4) =     -8.11547  eV     1   --> A              
     e(  5 -  5) =     -7.35061  eV     1   --> A              
     e(  6 -  6) =     -6.74860  eV     1   --> A              
     e(  7 -  7) =     -6.73377  eV     1   --> A              
     e(  8 -  8) =     -5.78872  eV     1   --> A              
     e(  9 -  9) =      3.13163  eV     1   --> A              
     e( 10 - 10) =      4.29469  eV     1   --> A              
     e( 11 - 11) =      5.37210  eV     1   --> A              
     e( 12 - 12) =      5.40220  eV     1   --> A              
     e( 13 - 13) =      6.02510  eV     1   --> A              
     e( 14 - 14) =      6.80557  eV     1   --> A              
     e( 15 - 15) =      7.71446  eV     1   --> A              
     e( 16 - 16) =      8.60799  eV     1   --> A              
     e( 17 - 17) =      9.10926  eV     1   --> A              
     e( 18 - 18) =      9.21549  eV     1   --> A              
     e( 19 - 19) =      9.92551  eV     1   --> A              
     e( 20 - 20) =     10.43157  eV     1   --> A              
     e( 21 - 21) =     10.53051  eV     1   --> A              
     e( 22 - 22) =     12.22166  eV     1   --> A              
     e( 23 - 23) =     14.19791  eV     1   --> A              
     e( 24 - 24) =     15.12316  eV     1   --> A              
     e( 25 - 25) =     15.66484  eV     1   --> A              
     e( 26 - 26) =     16.20735  eV     1   --> A              
     e( 27 - 27) =     16.50515  eV     1   --> A              
     e( 28 - 28) =     18.50404  eV     1   --> A              
     e( 29 - 29) =     18.63446  eV     1   --> A              
     e( 30 - 30) =     20.07783  eV     1   --> A              

 **************************************************************************

 **************************************************************************

                    xk=(   0.33333,   0.00000,   0.00000  )

     Band symmetry, C_1 (1)     point group:

     e(  1 -  1) =    -18.54080  eV     1   --> A              
     e(  2 -  2) =    -17.93005  eV     1   --> A              
     e(  3 -  3) =     -9.01496  eV     1   --> A              
     e(  4 -  4) =     -8.41244  eV     1   --> A              
     e(  5 -  5) =     -7.59663  eV     1   --> A              
     e(  6 -  6) =     -6.99455  eV     1   --> A              
     e(  7 -  7) =     -6.51916  eV     1   --> A              
     e(  8 -  8) =     -5.58070  eV     1   --> A              
     e(  9 -  9) =      3.39094  eV     1   --> A              
     e( 10 - 10) =      4.55139  eV     1   --> A              
     e( 11 - 11) =      5.03226  eV     1   --> A              
     e( 12 - 12) =      5.62691  eV     1   --> A              
     e( 13 - 13) =      5.66644  eV     1   --> A              
     e( 14 - 14) =      7.04654  eV     1   --> A              
     e( 15 - 15) =      7.94795  eV     1   --> A              
     e( 16 - 16) =      8.78415  eV     1   --> A              
     e( 17 - 17) =      9.34488  eV     1   --> A              
     e( 18 - 18) =      9.39248  eV     1   --> A              
     e( 19 - 19) =     10.03960  eV     1   --> A              
     e( 20 - 20) =     10.64179  eV     1   --> A              
     e( 21 - 21) =     10.68141  eV     1   --> A              
     e( 22 - 22) =     12.43303  eV     1   --> A              
     e( 23 - 23) =     14.41848  eV     1   --> A              
     e( 24 - 24) =     15.47444  eV     1   --> A              
     e( 25 - 25) =     15.67319  eV     1   --> A              
     e( 26 - 26) =     16.31045  eV     1   --> A              
     e( 27 - 27) =     16.48578  eV     1   --> A              
     e( 28 - 28) =     18.36015  eV     1   --> A              
     e( 29 - 29) =     18.81637  eV     1   --> A              
     e( 30 - 30) =     19.56899  eV     1   --> A              

 **************************************************************************

 **************************************************************************

                    xk=(   0.35000,   0.00000,   0.00000  )

     Band symmetry, C_1 (1)     point group:

     e(  1 -  1) =    -18.34961  eV     1   --> A              
     e(  2 -  2) =    -17.73908  eV     1   --> A              
     e(  3 -  3) =     -9.30867  eV     1   --> A              
     e(  4 -  4) =     -8.70607  eV     1   --> A              
     e(  5 -  5) =     -7.84417  eV     1   --> A              
     e(  6 -  6) =     -7.24203  eV     1   --> A              
     e(  7 -  7) =     -6.29528  eV     1   --> A              
     e(  8 -  8) =     -5.36395  eV     1   --> A              
     e(  9 -  9) =      3.66330  eV     1   --> A              
     e( 10 - 10) =      4.67048  eV     1   --> A              
     e( 11 - 11) =      4.82107  eV     1   --> A              
     e( 12 - 12) =      5.30622  eV     1   --> A              
     e( 13 - 13) =      5.88617  eV     1   --> A              
     e( 14 - 14) =      7.29753  eV     1   --> A              
     e( 15 - 15) =      8.19057  eV     1   --> A              
     e( 16 - 16) =      8.96905  eV     1   --> A              
     e( 17 - 17) =      9.56939  eV     1   --> A              
     e( 18 - 18) =      9.59895  eV     1   --> A              
     e( 19 - 19) =     10.15134  eV     1   --> A              
     e( 20 - 20) =     10.75403  eV     1   --> A              
     e( 21 - 21) =     10.93764  eV     1   --> A              
     e( 22 - 22) =     12.64532  eV     1   --> A              
     e( 23 - 23) =     14.60510  eV     1   --> A              
     e( 24 - 24) =     15.31430  eV     1   --> A              
     e( 25 - 25) =     15.88362  eV     1   --> A              
     e( 26 - 26) =     16.43871  eV     1   --> A              
     e( 27 - 27) =     16.70180  eV     1   --> A              
     e( 28 - 28) =     18.30806  eV     1   --> A              
     e( 29 - 29) =     18.98522  eV     1   --> A              
     e( 30 - 30) =     19.07745  eV     1   --> A              

 **************************************************************************

 **************************************************************************

                    xk=(   0.36667,   0.00000,   0.00000  )

     Band symmetry, C_1 (1)     point group:

     e(  1 -  1) =    -18.14990  eV     1   --> A              
     e(  2 -  2) =    -17.53960  eV     1   --> A              
     e(  3 -  3) =     -9.59841  eV     1   --> A              
     e(  4 -  4) =     -8.99573  eV     1   --> A              
     e(  5 -  5) =     -8.09231  eV     1   --> A              
     e(  6 -  6) =     -7.49009  eV     1   --> A              
     e(  7 -  7) =     -6.06248  eV     1   --> A              
     e(  8 -  8) =     -5.13885  eV     1   --> A              
     e(  9 -  9) =      3.94859  eV     1   --> A              
     e( 10 - 10) =      4.30979  eV     1   --> A              
     e( 11 - 11) =      4.94610  eV     1   --> A              
     e( 12 - 12) =      5.10484  eV     1   --> A              
     e( 13 - 13) =      6.15624  eV     1   --> A              
     e( 14 - 14) =      7.55760  eV     1   --> A              
     e( 15 - 15) =      8.44137  eV     1   --> A              
     e( 16 - 16) =      9.16208  eV     1   --> A              
     e( 17 - 17) =      9.76357  eV     1   --> A              
     e( 18 - 18) =      9.85227  eV     1   --> A              
     e( 19 - 19) =     10.26203  eV     1   --> A              
     e( 20 - 20) =     10.86281  eV     1   --> A              
     e( 21 - 21) =     11.20402  eV     1   --> A              
     e( 22 - 22) =     12.85376  eV     1   --> A              
     e( 23 - 23) =     14.60670  eV     1   --> A              
     e( 24 - 24) =     15.20873  eV     1   --> A              
     e( 25 - 25) =     15.99177  eV     1   --> A              
     e( 26 - 26) =     16.54847  eV     1   --> A              
     e( 27 - 27) =     17.08102  eV     1   --> A              
     e( 28 - 28) =     18.29731  eV     1   --> A              
     e( 29 - 29) =     18.61160  eV     1   --> A              
     e( 30 - 30) =     18.87045  eV     1   --> A              

 **************************************************************************

 **************************************************************************

                    xk=(   0.38333,   0.00000,   0.00000  )

     Band symmetry, C_1 (1)     point group:

     e(  1 -  1) =    -17.94185  eV     1   --> A              
     e(  2 -  2) =    -17.33178  eV     1   --> A              
     e(  3 -  3) =     -9.88364  eV     1   --> A              
     e(  4 -  4) =     -9.28089  eV     1   --> A              
     e(  5 -  5) =     -8.34012  eV     1   --> A              
     e(  6 -  6) =     -7.73783  eV     1   --> A              
     e(  7 -  7) =     -5.82116  eV     1   --> A              
     e(  8 -  8) =     -4.90585  eV     1   --> A              
     e(  9 -  9) =      3.95090  eV     1   --> A              
     e( 10 - 10) =      4.24658  eV     1   --> A              
     e( 11 - 11) =      4.59029  eV     1   --> A              
     e( 12 - 12) =      5.39934  eV     1   --> A              
     e( 13 - 13) =      6.43740  eV     1   --> A              
     e( 14 - 14) =      7.82545  eV     1   --> A              
     e( 15 - 15) =      8.69914  eV     1   --> A              
     e( 16 - 16) =      9.36251  eV     1   --> A              
     e( 17 - 17) =      9.96045  eV     1   --> A              
     e( 18 - 18) =     10.11643  eV     1   --> A              
     e( 19 - 19) =     10.37358  eV     1   --> A              
     e( 20 - 20) =     10.96979  eV     1   --> A              
     e( 21 - 21) =     11.47696  eV     1   --> A              
     e( 22 - 22) =     13.05119  eV     1   --> A              
     e( 23 - 23) =     14.35618  eV     1   --> A              
     e( 24 - 24) =     15.37116  eV     1   --> A              
     e( 25 - 25) =     15.89921  eV     1   --> A              
     e( 26 - 26) =     16.77268  eV     1   --> A              
     e( 27 - 27) =     17.41620  eV     1   --> A              
     e( 28 - 28) =     18.13618  eV     1   --> A              
     e( 29 - 29) =     18.19618  eV     1   --> A              
     e( 30 - 30) =     18.70113  eV     1   --> A              

 **************************************************************************

 **************************************************************************

                    xk=(   0.40000,   0.00000,   0.00000  )

     Band symmetry, C_1 (1)     point group:

     e(  1 -  1) =    -17.72564  eV     1   --> A              
     e(  2 -  2) =    -17.11582  eV     1   --> A              
     e(  3 -  3) =    -10.16389  eV     1   --> A              
     e(  4 -  4) =     -9.56107  eV     1   --> A              
     e(  5 -  5) =     -8.58675  eV     1   --> A              
     e(  6 -  6) =     -7.98439  eV     1   --> A              
     e(  7 -  7) =     -5.57178  eV     1   --> A              
     e(  8 -  8) =     -4.66542  eV     1   --> A              
     e(  9 -  9) =      3.59501  eV     1   --> A              
     e( 10 - 10) =      4.23525  eV     1   --> A              
     e( 11 - 11) =      4.55869  eV     1   --> A              
     e( 12 - 12) =      5.70723  eV     1   --> A              
     e( 13 - 13) =      6.72911  eV     1   --> A              
     e( 14 - 14) =      8.09919  eV     1   --> A              
     e( 15 - 15) =      8.96232  eV     1   --> A              
     e( 16 - 16) =      9.56942  eV     1   --> A              
     e( 17 - 17) =     10.15866  eV     1   --> A              
     e( 18 - 18) =     10.38607  eV     1   --> A              
     e( 19 - 19) =     10.49108  eV     1   --> A              
     e( 20 - 20) =     11.07536  eV     1   --> A              
     e( 21 - 21) =     11.75148  eV     1   --> A              
     e( 22 - 22) =     13.22662  eV     1   --> A              
     e( 23 - 23) =     14.05378  eV     1   --> A              
     e( 24 - 24) =     15.61310  eV     1   --> A              
     e( 25 - 25) =     15.77980  eV     1   --> A              
     e( 26 - 26) =     16.89197  eV     1   --> A              
     e( 27 - 27) =     17.54993  eV     1   --> A              
     e( 28 - 28) =     17.83134  eV     1   --> A              
     e( 29 - 29) =     17.94009  eV     1   --> A              
     e( 30 - 30) =     18.67977  eV     1   --> A              

 **************************************************************************

 **************************************************************************

                    xk=(   0.41667,   0.00000,   0.00000  )

     Band symmetry, C_1 (1)     point group:

     e(  1 -  1) =    -17.50151  eV     1   --> A              
     e(  2 -  2) =    -16.89194  eV     1   --> A              
     e(  3 -  3) =    -10.43876  eV     1   --> A              
     e(  4 -  4) =     -9.83586  eV     1   --> A              
     e(  5 -  5) =     -8.83136  eV     1   --> A              
     e(  6 -  6) =     -8.22894  eV     1   --> A              
     e(  7 -  7) =     -5.31485  eV     1   --> A              
     e(  8 -  8) =     -4.41814  eV     1   --> A              
     e(  9 -  9) =      3.24291  eV     1   --> A              
     e( 10 - 10) =      3.88536  eV     1   --> A              
     e( 11 - 11) =      4.88205  eV     1   --> A              
     e( 12 - 12) =      6.02771  eV     1   --> A              
     e( 13 - 13) =      7.03065  eV     1   --> A              
     e( 14 - 14) =      8.37609  eV     1   --> A              
     e( 15 - 15) =      9.22895  eV     1   --> A              
     e( 16 - 16) =      9.78169  eV     1   --> A              
     e( 17 - 17) =     10.35034  eV     1   --> A              
     e( 18 - 18) =     10.60314  eV     1   --> A              
     e( 19 - 19) =     10.67808  eV     1   --> A              
     e( 20 - 20) =     11.17979  eV     1   --> A              
     e( 21 - 21) =     12.01651  eV     1   --> A              
     e( 22 - 22) =     13.36051  eV     1   --> A              
     e( 23 - 23) =     13.78558  eV     1   --> A              
     e( 24 - 24) =     15.65875  eV     1   --> A              
     e( 25 - 25) =     15.91328  eV     1   --> A              
     e( 26 - 26) =     16.75983  eV     1   --> A              
     e( 27 - 27) =     17.24726  eV     1   --> A              
     e( 28 - 28) =     17.63913  eV     1   --> A              
     e( 29 - 29) =     17.92934  eV     1   --> A              
     e( 30 - 30) =     18.48876  eV     1   --> A              

 **************************************************************************

 **************************************************************************

                    xk=(   0.43333,   0.00000,   0.00000  )

     Band symmetry, C_1 (1)     point group:

     e(  1 -  1) =    -17.26973  eV     1   --> A              
     e(  2 -  2) =    -16.66041  eV     1   --> A              
     e(  3 -  3) =    -10.70789  eV     1   --> A              
     e(  4 -  4) =    -10.10491  eV     1   --> A              
     e(  5 -  5) =     -9.07315  eV     1   --> A              
     e(  6 -  6) =     -8.47066  eV     1   --> A              
     e(  7 -  7) =     -5.05093  eV     1   --> A              
     e(  8 -  8) =     -4.16461  eV     1   --> A              
     e(  9 -  9) =      2.89543  eV     1   --> A              
     e( 10 - 10) =      3.53971  eV     1   --> A              
     e( 11 - 11) =      5.21817  eV     1   --> A              
     e( 12 - 12) =      6.36057  eV     1   --> A              
     e( 13 - 13) =      7.34101  eV     1   --> A              
     e( 14 - 14) =      8.65205  eV     1   --> A              
     e( 15 - 15) =      9.49656  eV     1   --> A              
     e( 16 - 16) =      9.99793  eV     1   --> A              
     e( 17 - 17) =     10.51994  eV     1   --> A              
     e( 18 - 18) =     10.75834  eV     1   --> A              
     e( 19 - 19) =     10.95600  eV     1   --> A              
     e( 20 - 20) =     11.28358  eV     1   --> A              
     e( 21 - 21) =     12.24438  eV     1   --> A              
     e( 22 - 22) =     13.40033  eV     1   --> A              
     e( 23 - 23) =     13.64101  eV     1   --> A              
     e( 24 - 24) =     15.62115  eV     1   --> A              
     e( 25 - 25) =     16.19650  eV     1   --> A              
     e( 26 - 26) =     16.44165  eV     1   --> A              
     e( 27 - 27) =     16.84831  eV     1   --> A              
     e( 28 - 28) =     17.44196  eV     1   --> A              
     e( 29 - 29) =     17.76104  eV     1   --> A              
     e( 30 - 30) =     18.25526  eV     1   --> A              

 **************************************************************************

 **************************************************************************

                    xk=(   0.45000,   0.00000,   0.00000  )

     Band symmetry, C_1 (1)     point group:

     e(  1 -  1) =    -17.03060  eV     1   --> A              
     e(  2 -  2) =    -16.42155  eV     1   --> A              
     e(  3 -  3) =    -10.97095  eV     1   --> A              
     e(  4 -  4) =    -10.36791  eV     1   --> A              
     e(  5 -  5) =     -9.31131  eV     1   --> A              
     e(  6 -  6) =     -8.70877  eV     1   --> A              
     e(  7 -  7) =     -4.78069  eV     1   --> A              
     e(  8 -  8) =     -3.90553  eV     1   --> A              
     e(  9 -  9) =      2.55328  eV     1   --> A              
     e( 10 - 10) =      3.19930  eV     1   --> A              
     e( 11 - 11) =      5.56655  eV     1   --> A              
     e( 12 - 12) =      6.70559  eV     1   --> A              
     e( 13 - 13) =      7.65871  eV     1   --> A              
     e( 14 - 14) =      8.92099  eV     1   --> A              
     e( 15 - 15) =      9.76214  eV     1   --> A              
     e( 16 - 16) =     10.21647  eV     1   --> A              
     e( 17 - 17) =     10.65595  eV     1   --> A              
     e( 18 - 18) =     10.94430  eV     1   --> A              
     e( 19 - 19) =     11.23645  eV     1   --> A              
     e( 20 - 20) =     11.39019  eV     1   --> A              
     e( 21 - 21) =     12.37355  eV     1   --> A              
     e( 22 - 22) =     13.38148  eV     1   --> A              
     e( 23 - 23) =     13.65698  eV     1   --> A              
     e( 24 - 24) =     15.63386  eV     1   --> A              
     e( 25 - 25) =     16.05905  eV     1   --> A              
     e( 26 - 26) =     16.44309  eV     1   --> A              
     e( 27 - 27) =     16.51179  eV     1   --> A              
     e( 28 - 28) =     17.14737  eV     1   --> A              
     e( 29 - 29) =     17.46478  eV     1   --> A              
     e( 30 - 30) =     18.02834  eV     1   --> A              

 **************************************************************************

 **************************************************************************

                    xk=(   0.46667,   0.00000,   0.00000  )

     Band symmetry, C_1 (1)     point group:

     e(  1 -  1) =    -16.78453  eV     1   --> A              
     e(  2 -  2) =    -16.17574  eV     1   --> A              
     e(  3 -  3) =    -11.22769  eV     1   --> A              
     e(  4 -  4) =    -10.62457  eV     1   --> A              
     e(  5 -  5) =     -9.54506  eV     1   --> A              
     e(  6 -  6) =     -8.94245  eV     1   --> A              
     e(  7 -  7) =     -4.50486  eV     1   --> A              
     e(  8 -  8) =     -3.64169  eV     1   --> A              
     e(  9 -  9) =      2.21712  eV     1   --> A              
     e( 10 - 10) =      2.86479  eV     1   --> A              
     e( 11 - 11) =      5.92681  eV     1   --> A              
     e( 12 - 12) =      7.06246  eV     1   --> A              
     e( 13 - 13) =      7.98145  eV     1   --> A              
     e( 14 - 14) =      9.17419  eV     1   --> A              
     e( 15 - 15) =     10.02197  eV     1   --> A              
     e( 16 - 16) =     10.43543  eV     1   --> A              
     e( 17 - 17) =     10.76623  eV     1   --> A              
     e( 18 - 18) =     11.15476  eV     1   --> A              
     e( 19 - 19) =     11.45445  eV     1   --> A              
     e( 20 - 20) =     11.55799  eV     1   --> A              
     e( 21 - 21) =     12.35716  eV     1   --> A              
     e( 22 - 22) =     13.49808  eV     1   --> A              
     e( 23 - 23) =     13.71063  eV     1   --> A              
     e( 24 - 24) =     15.61209  eV     1   --> A              
     e( 25 - 25) =     15.68843  eV     1   --> A              
     e( 26 - 26) =     16.16248  eV     1   --> A              
     e( 27 - 27) =     16.76319  eV     1   --> A              
     e( 28 - 28) =     16.80350  eV     1   --> A              
     e( 29 - 29) =     17.15888  eV     1   --> A              
     e( 30 - 30) =     17.77315  eV     1   --> A              

 **************************************************************************

 **************************************************************************

                    xk=(   0.48333,   0.00000,   0.00000  )

     Band symmetry, C_1 (1)     point group:

     e(  1 -  1) =    -16.53197  eV     1   --> A              
     e(  2 -  2) =    -15.92346  eV     1   --> A              
     e(  3 -  3) =    -11.47785  eV     1   --> A              
     e(  4 -  4) =    -10.87467  eV     1   --> A              
     e(  5 -  5) =     -9.77355  eV     1   --> A              
     e(  6 -  6) =     -9.17088  eV     1   --> A              
     e(  7 -  7) =     -4.22428  eV     1   --> A              
     e(  8 -  8) =     -3.37397  eV     1   --> A              
     e(  9 -  9) =      1.88754  eV     1   --> A              
     e( 10 - 10) =      2.53681  eV     1   --> A              
     e( 11 - 11) =      6.29844  eV     1   --> A              
     e( 12 - 12) =      7.43074  eV     1   --> A              
     e( 13 - 13) =      8.30552  eV     1   --> A              
     e( 14 - 14) =      9.40041  eV     1   --> A              
     e( 15 - 15) =     10.27061  eV     1   --> A              
     e( 16 - 16) =     10.65295  eV     1   --> A              
     e( 17 - 17) =     10.86140  eV     1   --> A              
     e( 18 - 18) =     11.37693  eV     1   --> A              
     e( 19 - 19) =     11.56155  eV     1   --> A              
     e( 20 - 20) =     11.82943  eV     1   --> A              
     e( 21 - 21) =     12.26544  eV     1   --> A              
     e( 22 - 22) =     13.71205  eV     1   --> A              
     e( 23 - 23) =     13.80807  eV     1   --> A              
     e( 24 - 24) =     15.26608  eV     1   --> A              
     e( 25 - 25) =     15.45457  eV     1   --> A              
     e( 26 - 26) =     16.09997  eV     1   --> A              
     e( 27 - 27) =     16.43814  eV     1   --> A              
     e( 28 - 28) =     16.76920  eV     1   --> A              
     e( 29 - 29) =     17.12666  eV     1   --> A              
     e( 30 - 30) =     17.49869  eV     1   --> A              

 **************************************************************************

 **************************************************************************

                    xk=(   0.50000,   0.00000,   0.00000  )

     Band symmetry, C_1 (1)     point group:

     e(  1 -  1) =    -16.27349  eV     1   --> A              
     e(  2 -  2) =    -15.66527  eV     1   --> A              
     e(  3 -  3) =    -11.72123  eV     1   --> A              
     e(  4 -  4) =    -11.11798  eV     1   --> A              
     e(  5 -  5) =     -9.99591  eV     1   --> A              
     e(  6 -  6) =     -9.39319  eV     1   --> A              
     e(  7 -  7) =     -3.93989  eV     1   --> A              
     e(  8 -  8) =     -3.10336  eV     1   --> A              
     e(  9 -  9) =      1.56509  eV     1   --> A              
     e( 10 - 10) =      2.21587  eV     1   --> A              
     e( 11 - 11) =      6.68065  eV     1   --> A              
     e( 12 - 12) =      7.80979  eV     1   --> A              
     e( 13 - 13) =      8.62448  eV     1   --> A              
     e( 14 - 14) =      9.58836  eV     1   --> A              
     e( 15 - 15) =     10.49805  eV     1   --> A              
     e( 16 - 16) =     10.86731  eV     1   --> A              
     e( 17 - 17) =     10.94665  eV     1   --> A              
     e( 18 - 18) =     11.60148  eV     1   --> A              
     e( 19 - 19) =     11.65382  eV     1   --> A              
     e( 20 - 20) =     12.06823  eV     1   --> A              
     e( 21 - 21) =     12.23050  eV     1   --> A              
     e( 22 - 22) =     13.84240  eV     1   --> A              
     e( 23 - 23) =     14.07553  eV     1   --> A              
     e( 24 - 24) =     14.88607  eV     1   --> A              
     e( 25 - 25) =     15.13484  eV     1   --> A              
     e( 26 - 26) =     16.04332  eV     1   --> A              
     e( 27 - 27) =     16.15394  eV     1   --> A              
     e( 28 - 28) =     16.59447  eV     1   --> A              
     e( 29 - 29) =     17.15958  eV     1   --> A              
     e( 30 - 30) =     17.36507  eV     1   --> A              

 **************************************************************************

 **************************************************************************

                    xk=(   0.51667,   0.00000,   0.00000  )

     Band symmetry, C_1 (1)     point group:

     e(  1 -  1) =    -16.00984  eV     1   --> A              
     e(  2 -  2) =    -15.40192  eV     1   --> A              
     e(  3 -  3) =    -11.95764  eV     1   --> A              
     e(  4 -  4) =    -11.35432  eV     1   --> A              
     e(  5 -  5) =    -10.21119  eV     1   --> A              
     e(  6 -  6) =     -9.60842  eV     1   --> A              
     e(  7 -  7) =     -3.65277  eV     1   --> A              
     e(  8 -  8) =     -2.83095  eV     1   --> A              
     e(  9 -  9) =      1.25025  eV     1   --> A              
     e( 10 - 10) =      1.90249  eV     1   --> A              
     e( 11 - 11) =      7.07223  eV     1   --> A              
     e( 12 - 12) =      8.19856  eV     1   --> A              
     e( 13 - 13) =      8.92667  eV     1   --> A              
     e( 14 - 14) =      9.73272  eV     1   --> A              
     e( 15 - 15) =     10.68632  eV     1   --> A              
     e( 16 - 16) =     11.02651  eV     1   --> A              
     e( 17 - 17) =     11.07493  eV     1   --> A              
     e( 18 - 18) =     11.73791  eV     1   --> A              
     e( 19 - 19) =     11.83300  eV     1   --> A              
     e( 20 - 20) =     12.11776  eV     1   --> A              
     e( 21 - 21) =     12.45338  eV     1   --> A              
     e( 22 - 22) =     13.96540  eV     1   --> A              
     e( 23 - 23) =     14.39829  eV     1   --> A              
     e( 24 - 24) =     14.51738  eV     1   --> A              
     e( 25 - 25) =     14.81678  eV     1   --> A              
     e( 26 - 26) =     15.70517  eV     1   --> A              
     e( 27 - 27) =     15.97556  eV     1   --> A              
     e( 28 - 28) =     16.62379  eV     1   --> A              
     e( 29 - 29) =     16.89656  eV     1   --> A              
     e( 30 - 30) =     17.24761  eV     1   --> A              

 **************************************************************************

 **************************************************************************

                    xk=(   0.53333,   0.00000,   0.00000  )

     Band symmetry, C_1 (1)     point group:

     e(  1 -  1) =    -15.74193  eV     1   --> A              
     e(  2 -  2) =    -15.13432  eV     1   --> A              
     e(  3 -  3) =    -12.18692  eV     1   --> A              
     e(  4 -  4) =    -11.58353  eV     1   --> A              
     e(  5 -  5) =    -10.41827  eV     1   --> A              
     e(  6 -  6) =     -9.81546  eV     1   --> A              
     e(  7 -  7) =     -3.36413  eV     1   --> A              
     e(  8 -  8) =     -2.55798  eV     1   --> A              
     e(  9 -  9) =      0.94351  eV     1   --> A              
     e( 10 - 10) =      1.59710  eV     1   --> A              
     e( 11 - 11) =      7.47106  eV     1   --> A              
     e( 12 - 12) =      8.59506  eV     1   --> A              
     e( 13 - 13) =      9.19097  eV     1   --> A              
     e( 14 - 14) =      9.84106  eV     1   --> A              
     e( 15 - 15) =     10.82052  eV     1   --> A              
     e( 16 - 16) =     11.10973  eV     1   --> A              
     e( 17 - 17) =     11.26138  eV     1   --> A              
     e( 18 - 18) =     11.85524  eV     1   --> A              
     e( 19 - 19) =     12.05353  eV     1   --> A              
     e( 20 - 20) =     12.18205  eV     1   --> A              
     e( 21 - 21) =     12.74528  eV     1   --> A              
     e( 22 - 22) =     14.06555  eV     1   --> A              
     e( 23 - 23) =     14.16251  eV     1   --> A              
     e( 24 - 24) =     14.51224  eV     1   --> A              
     e( 25 - 25) =     14.78985  eV     1   --> A              
     e( 26 - 26) =     15.36313  eV     1   --> A              
     e( 27 - 27) =     15.73015  eV     1   --> A              
     e( 28 - 28) =     16.54211  eV     1   --> A              
     e( 29 - 29) =     16.74330  eV     1   --> A              
     e( 30 - 30) =     17.12716  eV     1   --> A              

 **************************************************************************

 **************************************************************************

                    xk=(   0.55000,   0.00000,   0.00000  )

     Band symmetry, C_1 (1)     point group:

     e(  1 -  1) =    -15.47099  eV     1   --> A              
     e(  2 -  2) =    -14.86371  eV     1   --> A              
     e(  3 -  3) =    -12.40892  eV     1   --> A              
     e(  4 -  4) =    -11.80546  eV     1   --> A              
     e(  5 -  5) =    -10.61581  eV     1   --> A              
     e(  6 -  6) =    -10.01296  eV     1   --> A              
     e(  7 -  7) =     -3.07532  eV     1   --> A              
     e(  8 -  8) =     -2.28581  eV     1   --> A              
     e(  9 -  9) =      0.64532  eV     1   --> A              
     e( 10 - 10) =      1.30014  eV     1   --> A              
     e( 11 - 11) =      7.87315  eV     1   --> A              
     e( 12 - 12) =      8.99451  eV     1   --> A              
     e( 13 - 13) =      9.38750  eV     1   --> A              
     e( 14 - 14) =      9.93301  eV     1   --> A              
     e( 15 - 15) =     10.92579  eV     1   --> A              
     e( 16 - 16) =     11.19313  eV     1   --> A              
     e( 17 - 17) =     11.40671  eV     1   --> A              
     e( 18 - 18) =     12.01940  eV     1   --> A              
     e( 19 - 19) =     12.26508  eV     1   --> A              
     e( 20 - 20) =     12.31468  eV     1   --> A              
     e( 21 - 21) =     13.04253  eV     1   --> A              
     e( 22 - 22) =     13.82075  eV     1   --> A              
     e( 23 - 23) =     13.96944  eV     1   --> A              
     e( 24 - 24) =     14.51029  eV     1   --> A              
     e( 25 - 25) =     15.03425  eV     1   --> A              
     e( 26 - 26) =     15.11810  eV     1   --> A              
     e( 27 - 27) =     15.50434  eV     1   --> A              
     e( 28 - 28) =     16.27735  eV     1   --> A              
     e( 29 - 29) =     16.59973  eV     1   --> A              
     e( 30 - 30) =     17.16159  eV     1   --> A              

 **************************************************************************

 **************************************************************************

                    xk=(   0.56667,   0.00000,   0.00000  )

     Band symmetry, C_1 (1)     point group:

     e(  1 -  1) =    -15.19865  eV     1   --> A              
     e(  2 -  2) =    -14.59172  eV     1   --> A              
     e(  3 -  3) =    -12.62350  eV     1   --> A              
     e(  4 -  4) =    -12.01998  eV     1   --> A              
     e(  5 -  5) =    -10.80212  eV     1   --> A              
     e(  6 -  6) =    -10.19925  eV     1   --> A              
     e(  7 -  7) =     -2.78790  eV     1   --> A              
     e(  8 -  8) =     -2.01601  eV     1   --> A              
     e(  9 -  9) =      0.35614  eV     1   --> A              
     e( 10 - 10) =      1.01202  eV     1   --> A              
     e( 11 - 11) =      8.27000  eV     1   --> A              
     e( 12 - 12) =      9.37308  eV     1   --> A              
     e( 13 - 13) =      9.51493  eV     1   --> A              
     e( 14 - 14) =     10.02238  eV     1   --> A              
     e( 15 - 15) =     11.06306  eV     1   --> A              
     e( 16 - 16) =     11.26231  eV     1   --> A              
     e( 17 - 17) =     11.50496  eV     1   --> A              
     e( 18 - 18) =     12.19566  eV     1   --> A              
     e( 19 - 19) =     12.48455  eV     1   --> A              
     e( 20 - 20) =     12.50332  eV     1   --> A              
     e( 21 - 21) =     13.30669  eV     1   --> A              
     e( 22 - 22) =     13.50189  eV     1   --> A              
     e( 23 - 23) =     13.75367  eV     1   --> A              
     e( 24 - 24) =     14.63952  eV     1   --> A              
     e( 25 - 25) =     14.72538  eV     1   --> A              
     e( 26 - 26) =     15.35718  eV     1   --> A              
     e( 27 - 27) =     15.42832  eV     1   --> A              
     e( 28 - 28) =     16.00841  eV     1   --> A              
     e( 29 - 29) =     16.43716  eV     1   --> A              
[...]
     e( 28 - 28) =     19.59662  eV     1   --> A              
     e( 29 - 29) =     20.96478  eV     1   --> A              
     e( 30 - 30) =     22.34604  eV     1   --> A              

 **************************************************************************

 **************************************************************************

                    xk=(   0.13333,   0.07698,   0.00000  )

     Band symmetry, C_1 (1)     point group:

     e(  1 -  1) =    -20.02956  eV     1   --> A              
     e(  2 -  2) =    -19.41700  eV     1   --> A              
     e(  3 -  3) =     -8.29128  eV     1   --> A              
     e(  4 -  4) =     -7.30430  eV     1   --> A              
     e(  5 -  5) =     -5.92260  eV     1   --> A              
     e(  6 -  6) =     -5.32068  eV     1   --> A              
     e(  7 -  7) =     -5.17112  eV     1   --> A              
     e(  8 -  8) =     -4.56960  eV     1   --> A              
     e(  9 -  9) =      1.29376  eV     1   --> A              
     e( 10 - 10) =      2.47487  eV     1   --> A              
     e( 11 - 11) =      3.61756  eV     1   --> A              
     e( 12 - 12) =      5.06321  eV     1   --> A              
     e( 13 - 13) =      6.01331  eV     1   --> A              
     e( 14 - 14) =      7.16681  eV     1   --> A              
     e( 15 - 15) =      7.39115  eV     1   --> A              
     e( 16 - 16) =      7.77458  eV     1   --> A              
     e( 17 - 17) =      8.58144  eV     1   --> A              
     e( 18 - 18) =      8.65051  eV     1   --> A              
     e( 19 - 19) =      8.70260  eV     1   --> A              
     e( 20 - 20) =      9.20328  eV     1   --> A              
     e( 21 - 21) =      9.30527  eV     1   --> A              
     e( 22 - 22) =     10.58710  eV     1   --> A              
     e( 23 - 23) =     11.58465  eV     1   --> A              
     e( 24 - 24) =     12.19562  eV     1   --> A              
     e( 25 - 25) =     12.47270  eV     1   --> A              
     e( 26 - 26) =     15.25652  eV     1   --> A              
     e( 27 - 27) =     16.93709  eV     1   --> A              
     e( 28 - 28) =     19.69141  eV     1   --> A              
     e( 29 - 29) =     20.91336  eV     1   --> A              
     e( 30 - 30) =     22.55704  eV     1   --> A              

 **************************************************************************

 **************************************************************************

                    xk=(   0.11667,   0.06736,   0.00000  )

     Band symmetry, C_1 (1)     point group:

     e(  1 -  1) =    -20.12530  eV     1   --> A              
     e(  2 -  2) =    -19.51261  eV     1   --> A              
     e(  3 -  3) =     -8.40668  eV     1   --> A              
     e(  4 -  4) =     -7.41695  eV     1   --> A              
     e(  5 -  5) =     -5.60404  eV     1   --> A              
     e(  6 -  6) =     -5.01934  eV     1   --> A              
     e(  7 -  7) =     -5.00226  eV     1   --> A              
     e(  8 -  8) =     -4.41786  eV     1   --> A              
     e(  9 -  9) =      1.16019  eV     1   --> A              
     e( 10 - 10) =      2.34264  eV     1   --> A              
     e( 11 - 11) =      3.48901  eV     1   --> A              
     e( 12 - 12) =      4.93551  eV     1   --> A              
     e( 13 - 13) =      5.88818  eV     1   --> A              
     e( 14 - 14) =      7.16829  eV     1   --> A              
     e( 15 - 15) =      7.27193  eV     1   --> A              
     e( 16 - 16) =      7.78294  eV     1   --> A              
     e( 17 - 17) =      8.34794  eV     1   --> A              
     e( 18 - 18) =      8.51233  eV     1   --> A              
     e( 19 - 19) =      8.87986  eV     1   --> A              
     e( 20 - 20) =      8.95066  eV     1   --> A              
     e( 21 - 21) =      9.49271  eV     1   --> A              
     e( 22 - 22) =     10.46215  eV     1   --> A              
     e( 23 - 23) =     11.38871  eV     1   --> A              
     e( 24 - 24) =     11.99905  eV     1   --> A              
     e( 25 - 25) =     12.34268  eV     1   --> A              
     e( 26 - 26) =     15.13880  eV     1   --> A              
     e( 27 - 27) =     16.81995  eV     1   --> A              
     e( 28 - 28) =     19.74088  eV     1   --> A              
     e( 29 - 29) =     20.84371  eV     1   --> A              
     e( 30 - 30) =     22.42105  eV     1   --> A              

 **************************************************************************

 **************************************************************************

                    xk=(   0.10000,   0.05774,   0.00000  )

     Band symmetry, C_1 (1)     point group:

     e(  1 -  1) =    -20.20837  eV     1   --> A              
     e(  2 -  2) =    -19.59557  eV     1   --> A              
     e(  3 -  3) =     -8.50694  eV     1   --> A              
     e(  4 -  4) =     -7.51485  eV     1   --> A              
     e(  5 -  5) =     -5.31492  eV     1   --> A              
     e(  6 -  6) =     -4.87891  eV     1   --> A              
     e(  7 -  7) =     -4.71327  eV     1   --> A              
     e(  8 -  8) =     -4.27747  eV     1   --> A              
     e(  9 -  9) =      1.04440  eV     1   --> A              
     e( 10 - 10) =      2.22801  eV     1   --> A              
     e( 11 - 11) =      3.37752  eV     1   --> A              
     e( 12 - 12) =      4.82466  eV     1   --> A              
     e( 13 - 13) =      5.77942  eV     1   --> A              
     e( 14 - 14) =      7.12911  eV     1   --> A              
     e( 15 - 15) =      7.19877  eV     1   --> A              
     e( 16 - 16) =      7.78030  eV     1   --> A              
     e( 17 - 17) =      8.03063  eV     1   --> A              
     e( 18 - 18) =      8.39873  eV     1   --> A              
     e( 19 - 19) =      8.63340  eV     1   --> A              
     e( 20 - 20) =      9.13968  eV     1   --> A              
     e( 21 - 21) =      9.75138  eV     1   --> A              
     e( 22 - 22) =     10.35366  eV     1   --> A              
     e( 23 - 23) =     11.22013  eV     1   --> A              
     e( 24 - 24) =     11.82996  eV     1   --> A              
     e( 25 - 25) =     12.23011  eV     1   --> A              
     e( 26 - 26) =     15.03595  eV     1   --> A              
     e( 27 - 27) =     16.71709  eV     1   --> A              
     e( 28 - 28) =     19.75958  eV     1   --> A              
     e( 29 - 29) =     20.77133  eV     1   --> A              
     e( 30 - 30) =     22.25619  eV     1   --> A              

 **************************************************************************

 **************************************************************************

                    xk=(   0.08333,   0.04811,   0.00000  )

     Band symmetry, C_1 (1)     point group:

     e(  1 -  1) =    -20.27872  eV     1   --> A              
     e(  2 -  2) =    -19.66584  eV     1   --> A              
     e(  3 -  3) =     -8.59195  eV     1   --> A              
     e(  4 -  4) =     -7.59789  eV     1   --> A              
     e(  5 -  5) =     -5.05977  eV     1   --> A              
     e(  6 -  6) =     -4.75290  eV     1   --> A              
     e(  7 -  7) =     -4.45822  eV     1   --> A              
     e(  8 -  8) =     -4.15150  eV     1   --> A              
     e(  9 -  9) =      0.94641  eV     1   --> A              
     e( 10 - 10) =      2.13101  eV     1   --> A              
     e( 11 - 11) =      3.28315  eV     1   --> A              
     e( 12 - 12) =      4.73077  eV     1   --> A              
     e( 13 - 13) =      5.68722  eV     1   --> A              
     e( 14 - 14) =      7.04932  eV     1   --> A              
     e( 15 - 15) =      7.17381  eV     1   --> A              
     e( 16 - 16) =      7.75421  eV     1   --> A              
     e( 17 - 17) =      7.76876  eV     1   --> A              
     e( 18 - 18) =      8.30181  eV     1   --> A              
     e( 19 - 19) =      8.35702  eV     1   --> A              
     e( 20 - 20) =      9.36572  eV     1   --> A              
     e( 21 - 21) =      9.97605  eV     1   --> A              
     e( 22 - 22) =     10.26178  eV     1   --> A              
     e( 23 - 23) =     11.08016  eV     1   --> A              
     e( 24 - 24) =     11.68959  eV     1   --> A              
     e( 25 - 25) =     12.13482  eV     1   --> A              
     e( 26 - 26) =     14.94835  eV     1   --> A              
     e( 27 - 27) =     16.62918  eV     1   --> A              
     e( 28 - 28) =     19.75971  eV     1   --> A              
     e( 29 - 29) =     20.70379  eV     1   --> A              
     e( 30 - 30) =     22.09310  eV     1   --> A              

 **************************************************************************

 **************************************************************************

                    xk=(   0.06667,   0.03849,   0.00000  )

     Band symmetry, C_1 (1)     point group:

     e(  1 -  1) =    -20.33633  eV     1   --> A              
     e(  2 -  2) =    -19.72337  eV     1   --> A              
     e(  3 -  3) =     -8.66162  eV     1   --> A              
     e(  4 -  4) =     -7.66596  eV     1   --> A              
     e(  5 -  5) =     -4.84309  eV     1   --> A              
     e(  6 -  6) =     -4.64441  eV     1   --> A              
     e(  7 -  7) =     -4.24163  eV     1   --> A              
     e(  8 -  8) =     -4.04305  eV     1   --> A              
     e(  9 -  9) =      0.86622  eV     1   --> A              
     e( 10 - 10) =      2.05164  eV     1   --> A              
     e( 11 - 11) =      3.20592  eV     1   --> A              
     e( 12 - 12) =      4.65389  eV     1   --> A              
     e( 13 - 13) =      5.61169  eV     1   --> A              
     e( 14 - 14) =      6.97635  eV     1   --> A              
     e( 15 - 15) =      7.15279  eV     1   --> A              
     e( 16 - 16) =      7.52216  eV     1   --> A              
     e( 17 - 17) =      7.75138  eV     1   --> A              
     e( 18 - 18) =      8.12501  eV     1   --> A              
     e( 19 - 19) =      8.22197  eV     1   --> A              
     e( 20 - 20) =      9.55495  eV     1   --> A              
     e( 21 - 21) =     10.16229  eV     1   --> A              
     e( 22 - 22) =     10.18810  eV     1   --> A              
     e( 23 - 23) =     10.96884  eV     1   --> A              
     e( 24 - 24) =     11.57784  eV     1   --> A              
     e( 25 - 25) =     12.05679  eV     1   --> A              
     e( 26 - 26) =     14.87629  eV     1   --> A              
     e( 27 - 27) =     16.55666  eV     1   --> A              
     e( 28 - 28) =     19.75027  eV     1   --> A              
     e( 29 - 29) =     20.64513  eV     1   --> A              
     e( 30 - 30) =     21.94669  eV     1   --> A              

 **************************************************************************

 **************************************************************************

                    xk=(   0.05000,   0.02887,   0.00000  )

     Band symmetry, C_1 (1)     point group:

     e(  1 -  1) =    -20.38116  eV     1   --> A              
     e(  2 -  2) =    -19.76814  eV     1   --> A              
     e(  3 -  3) =     -8.71587  eV     1   --> A              
     e(  4 -  4) =     -7.71898  eV     1   --> A              
     e(  5 -  5) =     -4.66919  eV     1   --> A              
     e(  6 -  6) =     -4.55638  eV     1   --> A              
     e(  7 -  7) =     -4.06781  eV     1   --> A              
     e(  8 -  8) =     -3.95505  eV     1   --> A              
     e(  9 -  9) =      0.80385  eV     1   --> A              
     e( 10 - 10) =      1.98991  eV     1   --> A              
     e( 11 - 11) =      3.14583  eV     1   --> A              
     e( 12 - 12) =      4.59407  eV     1   --> A              
     e( 13 - 13) =      5.55289  eV     1   --> A              
     e( 14 - 14) =      6.91844  eV     1   --> A              
     e( 15 - 15) =      7.13142  eV     1   --> A              
     e( 16 - 16) =      7.33773  eV     1   --> A              
     e( 17 - 17) =      7.73196  eV     1   --> A              
     e( 18 - 18) =      7.94061  eV     1   --> A              
     e( 19 - 19) =      8.15947  eV     1   --> A              
     e( 20 - 20) =      9.70488  eV     1   --> A              
     e( 21 - 21) =     10.12739  eV     1   --> A              
     e( 22 - 22) =     10.31288  eV     1   --> A              
     e( 23 - 23) =     10.88523  eV     1   --> A              
     e( 24 - 24) =     11.49363  eV     1   --> A              
     e( 25 - 25) =     11.99604  eV     1   --> A              
     e( 26 - 26) =     14.82001  eV     1   --> A              
     e( 27 - 27) =     16.49991  eV     1   --> A              
     e( 28 - 28) =     19.73755  eV     1   --> A              
     e( 29 - 29) =     20.59772  eV     1   --> A              
     e( 30 - 30) =     21.82572  eV     1   --> A              

 **************************************************************************

 **************************************************************************

                    xk=(   0.03333,   0.01925,   0.00000  )

     Band symmetry, C_1 (1)     point group:

     e(  1 -  1) =    -20.41320  eV     1   --> A              
     e(  2 -  2) =    -19.80014  eV     1   --> A              
     e(  3 -  3) =     -8.75467  eV     1   --> A              
     e(  4 -  4) =     -7.75690  eV     1   --> A              
     e(  5 -  5) =     -4.54189  eV     1   --> A              
     e(  6 -  6) =     -4.49141  eV     1   --> A              
     e(  7 -  7) =     -3.94056  eV     1   --> A              
     e(  8 -  8) =     -3.89010  eV     1   --> A              
     e(  9 -  9) =      0.75930  eV     1   --> A              
     e( 10 - 10) =      1.94581  eV     1   --> A              
     e( 11 - 11) =      3.10291  eV     1   --> A              
     e( 12 - 12) =      4.55133  eV     1   --> A              
     e( 13 - 13) =      5.51088  eV     1   --> A              
     e( 14 - 14) =      6.87680  eV     1   --> A              
     e( 15 - 15) =      7.11261  eV     1   --> A              
     e( 16 - 16) =      7.20373  eV     1   --> A              
     e( 17 - 17) =      7.71446  eV     1   --> A              
     e( 18 - 18) =      7.80664  eV     1   --> A              
     e( 19 - 19) =      8.11459  eV     1   --> A              
     e( 20 - 20) =      9.81349  eV     1   --> A              
     e( 21 - 21) =     10.08558  eV     1   --> A              
     e( 22 - 22) =     10.41985  eV     1   --> A              
     e( 23 - 23) =     10.82779  eV     1   --> A              
     e( 24 - 24) =     11.43533  eV     1   --> A              
     e( 25 - 25) =     11.95260  eV     1   --> A              
     e( 26 - 26) =     14.77968  eV     1   --> A              
     e( 27 - 27) =     16.45918  eV     1   --> A              
     e( 28 - 28) =     19.72578  eV     1   --> A              
     e( 29 - 29) =     20.56300  eV     1   --> A              
     e( 30 - 30) =     21.73580  eV     1   --> A              

 **************************************************************************

 **************************************************************************

                    xk=(   0.01667,   0.00962,   0.00000  )

     Band symmetry, C_1 (1)     point group:

     e(  1 -  1) =    -20.43243  eV     1   --> A              
     e(  2 -  2) =    -19.81934  eV     1   --> A              
     e(  3 -  3) =     -8.77795  eV     1   --> A              
     e(  4 -  4) =     -7.77966  eV     1   --> A              
     e(  5 -  5) =     -4.46421  eV     1   --> A              
     e(  6 -  6) =     -4.45154  eV     1   --> A              
     e(  7 -  7) =     -3.86292  eV     1   --> A              
     e(  8 -  8) =     -3.85025  eV     1   --> A              
     e(  9 -  9) =      0.73257  eV     1   --> A              
     e( 10 - 10) =      1.91935  eV     1   --> A              
     e( 11 - 11) =      3.07716  eV     1   --> A              
     e( 12 - 12) =      4.52568  eV     1   --> A              
     e( 13 - 13) =      5.48566  eV     1   --> A              
     e( 14 - 14) =      6.85175  eV     1   --> A              
     e( 15 - 15) =      7.09971  eV     1   --> A              
     e( 16 - 16) =      7.12240  eV     1   --> A              
     e( 17 - 17) =      7.70236  eV     1   --> A              
     e( 18 - 18) =      7.72532  eV     1   --> A              
     e( 19 - 19) =      8.08755  eV     1   --> A              
     e( 20 - 20) =      9.87926  eV     1   --> A              
     e( 21 - 21) =     10.06047  eV     1   --> A              
     e( 22 - 22) =     10.48413  eV     1   --> A              
     e( 23 - 23) =     10.79468  eV     1   --> A              
     e( 24 - 24) =     11.40121  eV     1   --> A              
     e( 25 - 25) =     11.92652  eV     1   --> A              
     e( 26 - 26) =     14.75542  eV     1   --> A              
     e( 27 - 27) =     16.43466  eV     1   --> A              
     e( 28 - 28) =     19.71770  eV     1   --> A              
     e( 29 - 29) =     20.54184  eV     1   --> A              
     e( 30 - 30) =     21.68052  eV     1   --> A              

 **************************************************************************

 **************************************************************************

                    xk=(   0.00000,   0.00000,   0.00000  )

     Band symmetry, C_1 (1)     point group:

     e(  1 -  1) =    -20.43884  eV     1   --> A              
     e(  2 -  2) =    -19.82574  eV     1   --> A              
     e(  3 -  3) =     -8.78572  eV     1   --> A              
     e(  4 -  4) =     -7.78725  eV     1   --> A              
     e(  5 -  6) =     -4.43810  eV     2   -->   2 A              
     e(  7 -  8) =     -3.83681  eV     2   -->   2 A              
     e(  9 -  9) =      0.72366  eV     1   --> A              
     e( 10 - 10) =      1.91053  eV     1   --> A              
     e( 11 - 11) =      3.06858  eV     1   --> A              
     e( 12 - 12) =      4.51713  eV     1   --> A              
     e( 13 - 13) =      5.47726  eV     1   --> A              
     e( 14 - 14) =      6.84339  eV     1   --> A              
     e( 15 - 16) =      7.09513  eV     2   -->   2 A              
     e( 17 - 18) =      7.69805  eV     2   -->   2 A              
     e( 19 - 19) =      8.07852  eV     1   --> A              
     e( 20 - 20) =      9.90127  eV     1   --> A              
     e( 21 - 21) =     10.05210  eV     1   --> A              
     e( 22 - 22) =     10.50548  eV     1   --> A              
     e( 23 - 23) =     10.78398  eV     1   --> A              
     e( 24 - 24) =     11.39000  eV     1   --> A              
     e( 25 - 25) =     11.91782  eV     1   --> A              
     e( 26 - 26) =     14.74733  eV     1   --> A              
     e( 27 - 27) =     16.42648  eV     1   --> A              
     e( 28 - 28) =     19.71484  eV     1   --> A              
     e( 29 - 29) =     20.53474  eV     1   --> A              
     e( 30 - 30) =     21.66187  eV     1   --> A              

 **************************************************************************
 
     BANDS        :     10.63s CPU     11.44s WALL

 
   This run was terminated on:  10:49:23   3Feb2022            

=------------------------------------------------------------------------------=
   JOB DONE.
=------------------------------------------------------------------------------=
