
     Program PWSCF v.7.0 starts on  3Feb2022 at 10:46:49 

     This program is part of the open-source Quantum ESPRESSO suite
     for quantum simulation of materials; please cite
         "P. Giannozzi et al., J. Phys.:Condens. Matter 21 395502 (2009);
         "P. Giannozzi et al., J. Phys.:Condens. Matter 29 465901 (2017);
         "P. Giannozzi et al., J. Chem. Phys. 152 154105 (2020);
          URL http://www.quantum-espresso.org", 
     in publications or presentations arising from this work. More details at
     http://www.quantum-espresso.org/quote

     Parallel version (MPI), running on     4 processors

     MPI processes distributed on     1 nodes
     R & G space division:  proc/nbgrp/npool/nimage =       4
     234931 MiB available memory on the printing compute node when the environment starts
 
     Waiting for input...
     Reading input from standard input

     Current dimensions of program PWSCF are:
     Max number of different atomic species (ntypx) = 10
     Max number of k-points (npk) =  40000
     Max angular momentum in pseudopotentials (lmaxx) =  4
     Presently no symmetry can be used with electric field


     Atomic positions and unit cell read from directory:
     ../tmp/bi-gr.save/
     Atomic positions from file used, from input discarded
 

     IMPORTANT: XC functional enforced from input :
     Exchange-correlation= VDW-DF2
                           (   1   4  13   0   2   0   0)
     Any further DFT definition will be discarded
     Please, verify this is what you really want


     Subspace diagonalization in iterative solution of the eigenvalue problem:
     a serial algorithm will be used

 
     Parallelization info
     --------------------
     sticks:   dense  smooth     PW     G-vecs:    dense   smooth      PW
     Min         124     124     37                17474    17474    2911
     Max         126     126     38                17490    17490    2928
     Sum         499     499    151                69929    69929   11693
 
     Using Slab Decomposition
 


     bravais-lattice index     =            4
     lattice parameter (alat)  =       4.6975  a.u.
     unit-cell volume          =     722.2482 (a.u.)^3
     number of atoms/cell      =            4
     number of atomic types    =            1
     number of electrons       =        16.00
     number of Kohn-Sham states=           30
     kinetic-energy cutoff     =      80.0000  Ry
     charge density cutoff     =     320.0000  Ry
     Exchange-correlation= VDW-DF2
                           (   1   4  13   0   2   0   0)

     celldm(1)=   4.697464  celldm(2)=   0.000000  celldm(3)=   8.045729
     celldm(4)=   0.000000  celldm(5)=   0.000000  celldm(6)=   0.000000

     crystal axes: (cart. coord. in units of alat)
               a(1) = (   1.000000   0.000000   0.000000 )  
               a(2) = (  -0.500000   0.866025   0.000000 )  
               a(3) = (   0.000000   0.000000   8.045729 )  

     reciprocal axes: (cart. coord. in units 2 pi/alat)
               b(1) = (  1.000000  0.577350  0.000000 )  
               b(2) = (  0.000000  1.154701  0.000000 )  
               b(3) = (  0.000000  0.000000  0.124290 )  


     PseudoPot. # 1 for C  read from file:
     ../pseudo/C.pbe-n-rrkjus_psl.0.1.UPF
     MD5 check sum: 96a6a315177d77e6c95bf6fd3870f9e3
     Pseudo is Ultrasoft + core correction, Zval =  4.0
     Generated using &quot;atomic&quot; code by A. Dal Corso  v.6.3MaX
     Using radial grid of 1073 points,  4 beta functions with: 
                l(1) =   0
                l(2) =   0
                l(3) =   1
                l(4) =   1
     Q(r) pseudized with 0 coefficients 


     atomic species   valence    mass     pseudopotential
        C              4.00    12.01070     C ( 1.00)

     No symmetry found



   Cartesian axes

     site n.     atom                  positions (alat units)
         1           C   tau(   1) = (   0.0000000   0.0000000   3.3108847  )
         2           C   tau(   2) = (  -0.0000000   0.5773503   3.3106351  )
         3           C   tau(   3) = (   0.0000000   0.0000000   4.7348440  )
         4           C   tau(   4) = (   0.5000000   0.2886751   4.7350935  )

     number of k points=    91  Marzari-Vanderbilt smearing, width (Ry)=  0.0200
                       cart. coord. in units 2pi/alat
        k(    1) = (   0.0000000   0.0000000   0.0000000), wk =   0.0219780
        k(    2) = (   0.0166667   0.0000000   0.0000000), wk =   0.0219780
        k(    3) = (   0.0333333   0.0000000   0.0000000), wk =   0.0219780
        k(    4) = (   0.0500000   0.0000000   0.0000000), wk =   0.0219780
        k(    5) = (   0.0666667   0.0000000   0.0000000), wk =   0.0219780
        k(    6) = (   0.0833333   0.0000000   0.0000000), wk =   0.0219780
        k(    7) = (   0.1000000   0.0000000   0.0000000), wk =   0.0219780
        k(    8) = (   0.1166667   0.0000000   0.0000000), wk =   0.0219780
        k(    9) = (   0.1333333   0.0000000   0.0000000), wk =   0.0219780
        k(   10) = (   0.1500000   0.0000000   0.0000000), wk =   0.0219780
        k(   11) = (   0.1666667   0.0000000   0.0000000), wk =   0.0219780
        k(   12) = (   0.1833333   0.0000000   0.0000000), wk =   0.0219780
        k(   13) = (   0.2000000   0.0000000   0.0000000), wk =   0.0219780
        k(   14) = (   0.2166667   0.0000000   0.0000000), wk =   0.0219780
        k(   15) = (   0.2333333   0.0000000   0.0000000), wk =   0.0219780
        k(   16) = (   0.2500000   0.0000000   0.0000000), wk =   0.0219780
        k(   17) = (   0.2666667   0.0000000   0.0000000), wk =   0.0219780
        k(   18) = (   0.2833333   0.0000000   0.0000000), wk =   0.0219780
        k(   19) = (   0.3000000   0.0000000   0.0000000), wk =   0.0219780
        k(   20) = (   0.3166667   0.0000000   0.0000000), wk =   0.0219780
        k(   21) = (   0.3333333   0.0000000   0.0000000), wk =   0.0219780
        k(   22) = (   0.3500000   0.0000000   0.0000000), wk =   0.0219780
        k(   23) = (   0.3666667   0.0000000   0.0000000), wk =   0.0219780
        k(   24) = (   0.3833333   0.0000000   0.0000000), wk =   0.0219780
        k(   25) = (   0.4000000   0.0000000   0.0000000), wk =   0.0219780
        k(   26) = (   0.4166667   0.0000000   0.0000000), wk =   0.0219780
        k(   27) = (   0.4333333   0.0000000   0.0000000), wk =   0.0219780
        k(   28) = (   0.4500000   0.0000000   0.0000000), wk =   0.0219780
        k(   29) = (   0.4666667   0.0000000   0.0000000), wk =   0.0219780
        k(   30) = (   0.4833333   0.0000000   0.0000000), wk =   0.0219780
        k(   31) = (   0.5000000   0.0000000   0.0000000), wk =   0.0219780
        k(   32) = (   0.5166667   0.0000000   0.0000000), wk =   0.0219780
        k(   33) = (   0.5333333   0.0000000   0.0000000), wk =   0.0219780
        k(   34) = (   0.5500000   0.0000000   0.0000000), wk =   0.0219780
        k(   35) = (   0.5666667   0.0000000   0.0000000), wk =   0.0219780
        k(   36) = (   0.5833333   0.0000000   0.0000000), wk =   0.0219780
        k(   37) = (   0.6000000   0.0000000   0.0000000), wk =   0.0219780
        k(   38) = (   0.6166667   0.0000000   0.0000000), wk =   0.0219780
        k(   39) = (   0.6333333   0.0000000   0.0000000), wk =   0.0219780
        k(   40) = (   0.6500000   0.0000000   0.0000000), wk =   0.0219780
        k(   41) = (   0.6666667   0.0000000   0.0000000), wk =   0.0219780
        k(   42) = (   0.6583333   0.0144338   0.0000000), wk =   0.0219780
        k(   43) = (   0.6500000   0.0288675   0.0000000), wk =   0.0219780
        k(   44) = (   0.6416667   0.0433013   0.0000000), wk =   0.0219780
        k(   45) = (   0.6333333   0.0577350   0.0000000), wk =   0.0219780
        k(   46) = (   0.6250000   0.0721688   0.0000000), wk =   0.0219780
        k(   47) = (   0.6166667   0.0866025   0.0000000), wk =   0.0219780
        k(   48) = (   0.6083333   0.1010363   0.0000000), wk =   0.0219780
        k(   49) = (   0.6000000   0.1154701   0.0000000), wk =   0.0219780
        k(   50) = (   0.5916667   0.1299038   0.0000000), wk =   0.0219780
        k(   51) = (   0.5833333   0.1443376   0.0000000), wk =   0.0219780
        k(   52) = (   0.5750000   0.1587713   0.0000000), wk =   0.0219780
        k(   53) = (   0.5666667   0.1732051   0.0000000), wk =   0.0219780
        k(   54) = (   0.5583333   0.1876388   0.0000000), wk =   0.0219780
        k(   55) = (   0.5500000   0.2020726   0.0000000), wk =   0.0219780
        k(   56) = (   0.5416667   0.2165064   0.0000000), wk =   0.0219780
        k(   57) = (   0.5333333   0.2309401   0.0000000), wk =   0.0219780
        k(   58) = (   0.5250000   0.2453739   0.0000000), wk =   0.0219780
        k(   59) = (   0.5166667   0.2598076   0.0000000), wk =   0.0219780
        k(   60) = (   0.5083333   0.2742414   0.0000000), wk =   0.0219780
        k(   61) = (   0.5000000   0.2886751   0.0000000), wk =   0.0219780
        k(   62) = (   0.4833333   0.2790526   0.0000000), wk =   0.0219780
        k(   63) = (   0.4666667   0.2694301   0.0000000), wk =   0.0219780
        k(   64) = (   0.4500000   0.2598076   0.0000000), wk =   0.0219780
        k(   65) = (   0.4333333   0.2501851   0.0000000), wk =   0.0219780
        k(   66) = (   0.4166667   0.2405626   0.0000000), wk =   0.0219780
        k(   67) = (   0.4000000   0.2309401   0.0000000), wk =   0.0219780
        k(   68) = (   0.3833333   0.2213176   0.0000000), wk =   0.0219780
        k(   69) = (   0.3666667   0.2116951   0.0000000), wk =   0.0219780
        k(   70) = (   0.3500000   0.2020726   0.0000000), wk =   0.0219780
        k(   71) = (   0.3333333   0.1924501   0.0000000), wk =   0.0219780
        k(   72) = (   0.3166667   0.1828276   0.0000000), wk =   0.0219780
        k(   73) = (   0.3000000   0.1732051   0.0000000), wk =   0.0219780
        k(   74) = (   0.2833333   0.1635826   0.0000000), wk =   0.0219780
        k(   75) = (   0.2666667   0.1539601   0.0000000), wk =   0.0219780
        k(   76) = (   0.2500000   0.1443376   0.0000000), wk =   0.0219780
        k(   77) = (   0.2333333   0.1347151   0.0000000), wk =   0.0219780
        k(   78) = (   0.2166667   0.1250926   0.0000000), wk =   0.0219780
        k(   79) = (   0.2000000   0.1154701   0.0000000), wk =   0.0219780
        k(   80) = (   0.1833333   0.1058475   0.0000000), wk =   0.0219780
        k(   81) = (   0.1666667   0.0962250   0.0000000), wk =   0.0219780
        k(   82) = (   0.1500000   0.0866025   0.0000000), wk =   0.0219780
        k(   83) = (   0.1333333   0.0769800   0.0000000), wk =   0.0219780
        k(   84) = (   0.1166667   0.0673575   0.0000000), wk =   0.0219780
        k(   85) = (   0.1000000   0.0577350   0.0000000), wk =   0.0219780
        k(   86) = (   0.0833333   0.0481125   0.0000000), wk =   0.0219780
        k(   87) = (   0.0666667   0.0384900   0.0000000), wk =   0.0219780
        k(   88) = (   0.0500000   0.0288675   0.0000000), wk =   0.0219780
        k(   89) = (   0.0333333   0.0192450   0.0000000), wk =   0.0219780
        k(   90) = (   0.0166667   0.0096225   0.0000000), wk =   0.0219780
        k(   91) = (   0.0000000   0.0000000   0.0000000), wk =   0.0219780

     Dense  grid:    69929 G-vectors     FFT dimensions: (  27,  27, 216)

     Estimated max dynamical RAM per process >      20.14 MB

     Estimated total dynamical RAM >      80.57 MB

     Check: negative core charge=   -0.000001

     The potential is recalculated from file :
     ../tmp/bi-gr.save/charge-density


     negative rho (up, down):  3.033E-05 0.000E+00


     %%%%%%%%%%%%%%%%%%%%%%%%%%%%%%%%%%%%%%%%%%%%%%%%%%%%%%%%%%%%%%%%%%%%%%%%
     %                                                                      %
     % You are using vdW-DF, which was implemented by the Thonhauser group. %
     % Please cite the following two papers that made this development      %
     % possible and the two reviews that describe the various versions:     %
     %                                                                      %
     %   T. Thonhauser et al., PRL 115, 136402 (2015).                      %
     %   T. Thonhauser et al., PRB 76, 125112 (2007).                       %
     %   K. Berland et al., Rep. Prog. Phys. 78, 066501 (2015).             %
     %   D.C. Langreth et al., J. Phys.: Condens. Matter 21, 084203 (2009). %
     %                                                                      %
     %                                                                      %
     % If you are calculating the stress with vdW-DF, please also cite:     %
     %                                                                      %
     %   R. Sabatini et al., J. Phys.: Condens. Matter 24, 424209 (2012).   %
     %                                                                      %
     %%%%%%%%%%%%%%%%%%%%%%%%%%%%%%%%%%%%%%%%%%%%%%%%%%%%%%%%%%%%%%%%%%%%%%%%


 
     Adding external electric field

     Computed dipole along edir(3) : 
        Dipole                0.1256 Ry au,          0.3192 Debye
        Dipole field          0.0022 Ry au, 
 
        E field amplitude [Ha a.u.]:  9.7235E-03
        Potential amp.        0.5413 Ry
        Total length         35.9048 bohr
 
     Starting wfcs are   16 randomized atomic wfcs +   14 random wfcs

     Band Structure Calculation
     Davidson diagonalization with overlap
     c_bands:  1 eigenvalues not converged
     c_bands:  1 eigenvalues not converged
     c_bands:  1 eigenvalues not converged
     c_bands:  1 eigenvalues not converged
     c_bands:  1 eigenvalues not converged
     c_bands:  1 eigenvalues not converged
     c_bands:  1 eigenvalues not converged
     c_bands:  1 eigenvalues not converged
     c_bands:  1 eigenvalues not converged
     c_bands:  1 eigenvalues not converged
     c_bands:  2 eigenvalues not converged
     c_bands:  1 eigenvalues not converged

     ethr =  6.25E-12,  avg # of iterations = 92.9

     total cpu time spent up to now is      141.3 secs

     End of band structure calculation

          k = 0.0000 0.0000 0.0000 (  8771 PWs)   bands (ev):

   -20.4388 -19.8257  -8.7857  -7.7873  -4.4381  -4.4381  -3.8368  -3.8368
     0.7237   1.9105   3.0686   4.5171   5.4773   6.8434   7.0951   7.0951
     7.6981   7.6981   8.0785   9.9013  10.0521  10.5055  10.7840  11.3900
    11.9178  14.7473  16.4265  19.7148  20.5347  21.6619

          k = 0.0167 0.0000 0.0000 (  8793 PWs)   bands (ev):

   -20.4340 -19.8209  -8.7799  -7.7816  -4.4577  -4.4482  -3.8564  -3.8469
     0.7303   1.9171   3.0750   4.5235   5.4836   6.8497   7.0986   7.1155
     7.7013   7.7185   8.0853   9.8848  10.0584  10.4895  10.7920  11.3984
    11.9243  14.7534  16.4326  19.7170  20.5401  21.6759

          k = 0.0333 0.0000 0.0000 (  8791 PWs)   bands (ev):

   -20.4196 -19.8065  -8.7624  -7.7645  -4.5159  -4.4784  -3.9146  -3.8771
     0.7504   1.9370   3.0943   4.5428   5.5025   6.8685   7.1092   7.1760
     7.7113   7.7789   8.1056   9.8354  10.0772  10.4413  10.8166  11.4239
    11.9439  14.7716  16.4510  19.7232  20.5560  21.7175

          k = 0.0500 0.0000 0.0000 (  8785 PWs)   bands (ev):

   -20.3956 -19.7825  -8.7333  -7.7360  -4.6111  -4.5285  -4.0098  -3.9272
     0.7838   1.9701   3.1265   4.5748   5.5340   6.8997   7.1270   7.2739
     7.7282   7.8768   8.1393   9.7536  10.1086  10.3609  10.8592  11.4673
    11.9765  14.8019  16.4816  19.7325  20.5822  21.7856

          k = 0.0667 0.0000 0.0000 (  8797 PWs)   bands (ev):

   -20.3619 -19.7490  -8.6926  -7.6963  -4.7409  -4.5981  -4.1395  -3.9967
     0.8306   2.0164   3.1716   4.6197   5.5781   6.9434   7.1524   7.4054
     7.7522   8.0083   8.1864   9.6404  10.1524  10.2492  10.9213  11.5300
    12.0221  14.8441  16.5243  19.7433  20.6182  21.8783

          k = 0.0833 0.0000 0.0000 (  8791 PWs)   bands (ev):

   -20.3187 -19.7058  -8.6403  -7.6451  -4.9022  -4.6865  -4.3007  -4.0851
     0.8907   2.0759   3.2295   4.6774   5.6348   6.9994   7.1859   7.5653
     7.7839   8.1683   8.2466   9.4969  10.1064  10.2094  11.0047  11.6139
    12.0806  14.8983  16.5789  19.7532  20.6631  21.9927

          k = 0.1000 0.0000 0.0000 (  8779 PWs)   bands (ev):

   -20.2659 -19.6531  -8.5765  -7.5828  -5.0914  -4.7931  -4.4899  -4.1916
     0.9642   2.1487   3.3003   4.7479   5.7040   7.0674   7.2279   7.7474
     7.8236   8.3200   8.3505   9.3248   9.9355  10.2781  11.1119  11.7213
    12.1520  14.9642  16.6452  19.7580  20.7156  22.1249

          k = 0.1167 0.0000 0.0000 (  8781 PWs)   bands (ev):

   -20.2036 -19.5908  -8.5011  -7.5092  -5.3051  -4.9170  -4.7034  -4.3155
     1.0511   2.2346   3.3840   4.8312   5.7858   7.1469   7.2794   7.8711
     7.9456   8.4064   8.5482   9.1258   9.7376  10.3593  11.2454  11.8550
    12.2363  15.0416  16.7229  19.7518  20.7735  22.2691

          k = 0.1333 0.0000 0.0000 (  8775 PWs)   bands (ev):

   -20.1317 -19.5190  -8.4144  -7.4245  -5.5395  -5.0574  -4.9377  -4.4557
     1.1513   2.3338   3.4805   4.9272   5.8801   7.2368   7.3419   7.9280
     8.1517   8.5057   8.7540   8.9024   9.5148  10.4529  11.4082  12.0180
    12.3333  15.1302  16.8118  19.7255  20.8326  22.4175

          k = 0.1500 0.0000 0.0000 (  8769 PWs)   bands (ev):

   -20.0503 -19.4377  -8.3162  -7.3286  -5.7913  -5.2139  -5.1885  -4.6113
     1.2648   2.4463   3.5898   5.0359   5.9869   7.3340   7.4187   7.9933
     8.3594   8.6176   8.6559   8.9625   9.2696  10.5586  11.6031  12.2130
    12.4431  15.2296  16.9112  19.6663  20.8853  22.5518

          k = 0.1667 0.0000 0.0000 (  8773 PWs)   bands (ev):

   -19.9594 -19.3470  -8.2068  -7.2218  -6.0574  -5.4560  -5.3821  -4.7810
     1.3917   2.5719   3.7120   5.1574   6.1060   7.4334   7.5151   8.0656
     8.3908   8.5639   8.7428   9.0020   9.1683  10.6763  11.8322  12.4421
    12.5655  15.3394  17.0204  19.5578  20.9164  22.3064

          k = 0.1833 0.0000 0.0000 (  8759 PWs)   bands (ev):

   -19.8591 -19.2468  -8.0862  -7.1042  -6.3348  -5.7331  -5.5651  -4.9637
     1.5319   2.7107   3.8469   5.2915   6.2375   7.5321   7.6341   8.0707
     8.1858   8.7125   8.7649   8.8806   9.3628  10.8058  12.0962  12.6967
    12.7099  15.4587  17.1380  19.3846  20.8958  22.0533

          k = 0.2000 0.0000 0.0000 (  8755 PWs)   bands (ev):

   -19.7494 -19.1372  -7.9544  -6.9757  -6.6211  -6.0193  -5.7598  -5.1583
     1.6855   2.8628   3.9946   5.4381   6.3812   7.6334   7.7696   7.7920
     8.2603   8.4184   8.9434   9.0310   9.5465  10.9470  12.3947  12.8471
    13.0054  15.5866  17.2613  19.1415  20.7781  21.8933

          k = 0.2167 0.0000 0.0000 (  8755 PWs)   bands (ev):

   -19.6304 -19.0183  -7.8117  -6.9142  -6.8364  -6.3121  -5.9650  -5.3634
     1.8523   3.0280   4.1550   5.5972   6.5369   7.4751   7.7382   7.9241
     8.1103   8.3644   9.1141   9.1941   9.7176  11.0995  12.7254  13.0067
    13.3363  15.7216  17.3842  18.8408  20.5380  21.8150

          k = 0.2333 0.0000 0.0000 (  8743 PWs)   bands (ev):

   -19.5020 -18.8902  -7.6582  -7.2117  -6.6871  -6.6095  -6.1795  -5.5779
     2.0324   3.2063   4.3280   5.7687   6.7047   7.1475   7.7426   7.8948
     8.0942   8.4802   9.2724   9.3697   9.8762  11.2629  13.0845  13.1786
    13.6961  15.8614  17.4883  18.5176  20.2042  21.7834

          k = 0.2500 0.0000 0.0000 (  8723 PWs)   bands (ev):

   -19.3645 -18.7527  -7.5124  -7.4938  -6.9101  -6.5271  -6.4022  -5.8005
     2.2258   3.3978   4.5137   5.9524   6.8095   6.8842   7.4286   8.0014
     8.2730   8.6069   9.4193   9.5579  10.0233  11.4369  13.3609  13.4692
    14.0800  16.0023  17.5096  18.2548  19.8266  21.7647

          k = 0.2667 0.0000 0.0000 (  8717 PWs)   bands (ev):

   -19.2177 -18.6062  -7.8144  -7.3193  -7.2120  -6.6318  -6.3572  -6.0299
     2.4325   3.6024   4.7118   6.1482   6.4634   7.0726   7.0897   8.1368
     8.4647   8.7440   9.5563   9.7584  10.1606  11.6207  13.5559  13.8716
    14.4827  16.1382  17.3285  18.1890  19.4430  21.6352

          k = 0.2833 0.0000 0.0000 (  8693 PWs)   bands (ev):

   -19.0619 -18.4505  -8.1167  -7.5145  -7.1340  -6.8671  -6.2654  -6.1771
     2.6524   3.8202   4.9223   6.1110   6.3558   6.7376   7.2777   8.2838
     8.6682   8.8913   9.6853   9.9711  10.2898  11.8136  13.7613  14.2870
    14.8968  16.2572  16.9959  18.2854  19.0802  21.1296

          k = 0.3000 0.0000 0.0000 (  8713 PWs)   bands (ev):

   -18.8971 -18.2859  -8.4182  -7.8159  -7.1071  -6.9388  -6.5052  -5.9877
     2.8854   4.0509   5.1450   5.7542   6.3825   6.5755   7.4908   8.4411
     8.8833   9.0485   9.8078  10.1957  10.4125  12.0144  13.9762  14.7081
    15.3096  16.3232  16.6526  18.4406  18.7640  20.5993

          k = 0.3167 0.0000 0.0000 (  8715 PWs)   bands (ev):

   -18.7233 -18.1124  -8.7179  -8.1155  -7.3506  -6.7486  -6.7338  -5.7887
     3.1316   4.2947   5.3721   5.4022   6.0251   6.8056   7.7145   8.6080
     9.1093   9.2155   9.9255  10.4316  10.5305  12.2217  14.1979  15.1232
    15.6648  16.2073  16.5051  18.5040  18.6345  20.0778

          k = 0.3333 0.0000 0.0000 (  8707 PWs)   bands (ev):

   -18.5408 -17.9301  -9.0150  -8.4124  -7.5966  -6.9945  -6.5192  -5.5807
     3.3909   4.5514   5.0323   5.6269   5.6664   7.0465   7.9480   8.7842
     9.3449   9.3925  10.0396  10.6418  10.6814  12.4330  14.4185  15.4744
    15.6732  16.3105  16.4858  18.3602  18.8164  19.5690

          k = 0.3500 0.0000 0.0000 (  8717 PWs)   bands (ev):

   -18.3496 -17.7391  -9.3087  -8.7061  -7.8442  -7.2420  -6.2953  -5.3640
     3.6633   4.6705   4.8211   5.3062   5.8862   7.2975   8.1906   8.9691
     9.5694   9.5989  10.1513  10.7540  10.9376  12.6453  14.6051  15.3143
    15.8836  16.4387  16.7018  18.3081  18.9852  19.0775

          k = 0.3667 0.0000 0.0000 (  8721 PWs)   bands (ev):

   -18.1499 -17.5396  -9.5984  -8.9957  -8.0923  -7.4901  -6.0625  -5.1389
     3.9486   4.3098   4.9461   5.1048   6.1562   7.5576   8.4414   9.1621
     9.7636   9.8523  10.2620  10.8628  11.2040  12.8538  14.6067  15.2087
    15.9918  16.5485  17.0810  18.2973  18.6116  18.8705

          k = 0.3833 0.0000 0.0000 (  8727 PWs)   bands (ev):

   -17.9418 -17.3318  -9.8836  -9.2809  -8.3401  -7.7378  -5.8212  -4.9058
     3.9509   4.2466   4.5903   5.3993   6.4374   7.8254   8.6991   9.3625
     9.9604  10.1164  10.3736  10.9698  11.4770  13.0512  14.3562  15.3712
    15.8992  16.7727  17.4162  18.1362  18.1962  18.7011

          k = 0.4000 0.0000 0.0000 (  8721 PWs)   bands (ev):

   -17.7256 -17.1158 -10.1639  -9.5611  -8.5867  -7.9844  -5.5718  -4.6654
     3.5950   4.2353   4.5587   5.7072   6.7291   8.0992   8.9623   9.5694
    10.1587  10.3861  10.4911  11.0754  11.7515  13.2266  14.0538  15.6131
    15.7798  16.8920  17.5499  17.8313  17.9401  18.6798

          k = 0.4167 0.0000 0.0000 (  8717 PWs)   bands (ev):

   -17.5015 -16.8919 -10.4388  -9.8359  -8.8314  -8.2289  -5.3148  -4.4181
     3.2429   3.8854   4.8820   6.0277   7.0307   8.3761   9.2289   9.7817
    10.3503  10.6031  10.6781  11.1798  12.0165  13.3605  13.7856  15.6588
    15.9133  16.7598  17.2473  17.6391  17.9293  18.4888

          k = 0.4333 0.0000 0.0000 (  8731 PWs)   bands (ev):

   -17.2697 -16.6604 -10.7079 -10.1049  -9.0731  -8.4707  -5.0509  -4.1646
     2.8954   3.5397   5.2182   6.3606   7.3410   8.6521   9.4966   9.9979
    10.5199  10.7583  10.9560  11.2836  12.2444  13.4003  13.6410  15.6212
    16.1965  16.4416  16.8483  17.4420  17.7610  18.2553

          k = 0.4500 0.0000 0.0000 (  8717 PWs)   bands (ev):

   -17.0306 -16.4215 -10.9710 -10.3679  -9.3113  -8.7088  -4.7807  -3.9055
     2.5533   3.1993   5.5666   6.7056   7.6587   8.9210   9.7621  10.2165
    10.6560  10.9443  11.2365  11.3902  12.3736  13.3815  13.6570  15.6339
    16.0590  16.4431  16.5118  17.1474  17.4648  18.0283

          k = 0.4667 0.0000 0.0000 (  8727 PWs)   bands (ev):

   -16.7845 -16.1757 -11.2277 -10.6246  -9.5451  -8.9424  -4.5049  -3.6417
     2.2171   2.8648   5.9268   7.0625   7.9815   9.1742  10.0220  10.4354
    10.7662  11.1548  11.4545  11.5580  12.3572  13.4981  13.7106  15.6121
    15.6884  16.1625  16.7632  16.8035  17.1589  17.7732

          k = 0.4833 0.0000 0.0000 (  8727 PWs)   bands (ev):

   -16.5320 -15.9235 -11.4779 -10.8747  -9.7735  -9.1709  -4.2243  -3.3740
     1.8875   2.5368   6.2984   7.4307   8.3055   9.4004  10.2706  10.6530
    10.8614  11.3769  11.5616  11.8294  12.2654  13.7120  13.8081  15.2661
    15.4546  16.1000  16.4381  16.7692  17.1267  17.4987

          k = 0.5000 0.0000 0.0000 (  8721 PWs)   bands (ev):

   -16.2735 -15.6653 -11.7212 -11.1180  -9.9959  -9.3932  -3.9399  -3.1034
     1.5651   2.2159   6.6807   7.8098   8.6245   9.5884  10.4981  10.8673
    10.9467  11.6015  11.6538  12.0682  12.2305  13.8424  14.0755  14.8861
    15.1348  16.0433  16.1539  16.5945  17.1596  17.3651

          k = 0.5167 0.0000 0.0000 (  8721 PWs)   bands (ev):

   -16.0098 -15.4019 -11.9576 -11.3543 -10.2112  -9.6084  -3.6528  -2.8309
     1.2503   1.9025   7.0722   8.1986   8.9267   9.7327  10.6863  11.0265
    11.0749  11.7379  11.8330  12.1178  12.4534  13.9654  14.3983  14.5174
    14.8168  15.7052  15.9756  16.6238  16.8966  17.2476

          k = 0.5333 0.0000 0.0000 (  8717 PWs)   bands (ev):

   -15.7419 -15.1343 -12.1869 -11.5835 -10.4183  -9.8155  -3.3641  -2.5580
     0.9435   1.5971   7.4711   8.5951   9.1910   9.8411  10.8205  11.1097
    11.2614  11.8552  12.0535  12.1821  12.7453  14.0655  14.1625  14.5122
    14.7899  15.3631  15.7301  16.5421  16.7433  17.1272

          k = 0.5500 0.0000 0.0000 (  8727 PWs)   bands (ev):

   -15.4710 -14.8637 -12.4089 -11.8055 -10.6158 -10.0130  -3.0753  -2.2858
     0.6453   1.3001   7.8732   8.9945   9.3875   9.9330  10.9258  11.1931
    11.4067  12.0194  12.2651  12.3147  13.0425  13.8208  13.9694  14.5103
    15.0343  15.1181  15.5043  16.2774  16.5997  17.1616

          k = 0.5667 0.0000 0.0000 (  8719 PWs)   bands (ev):

   -15.1987 -14.5917 -12.6235 -12.0200 -10.8021 -10.1992  -2.7879  -2.0160
     0.3561   1.0120   8.2700   9.3731   9.5149  10.0224  11.0631  11.2623
    11.5050  12.1957  12.4845  12.5033  13.3067  13.5019  13.7537  14.6395
    14.7254  15.3572  15.4283  16.0084  16.4372  17.0544

          k = 0.5833 0.0000 0.0000 (  8721 PWs)   bands (ev):

   -14.9272 -14.3206 -12.8306 -12.2270 -10.9750 -10.3721  -2.5036  -1.7503
     0.0765   0.7331   8.6408   9.5323   9.7628  10.1383  11.2553  11.3214
    11.5601  12.3464  12.6699  12.7673  13.2108  13.3131  13.7777  14.4290
    14.6954  15.3785  15.6433  15.7528  16.3556  16.8505

          k = 0.6000 0.0000 0.0000 (  8709 PWs)   bands (ev):

   -14.6596 -14.0535 -13.0300 -12.4263 -11.1313 -10.5284  -2.2243  -1.4910
    -0.1926   0.4639   8.9345   9.6070   9.9520  10.4047  11.3123  11.5442
    11.5734  12.4671  12.7897  12.9200  13.0639  13.1584  14.0092  14.1625
    14.6546  15.5012  15.5556  15.7025  16.3742  16.7147

          k = 0.6167 0.0000 0.0000 (  8701 PWs)   bands (ev):

   -14.4006 -13.7950 -13.2216 -12.6180 -11.2668 -10.6639  -1.9523  -1.2419
    -0.4488   0.2050   9.0869   9.6996  10.1138  10.7787  11.3060  11.5445
    11.8217  12.5106  12.7171  12.7757  13.0536  13.3759  13.9292  14.1969
    14.6467  15.2927  15.5926  15.8159  16.3209  16.6710

          k = 0.6333 0.0000 0.0000 (  8703 PWs)   bands (ev):

   -14.1565 -13.5521 -13.4049 -12.8018 -11.3752 -10.7724  -1.6903  -1.0183
    -0.6785  -0.0426   9.1290   9.7378  10.3955  11.1093  11.3295  11.4759
    12.0500  12.3828  12.5608  12.7779  13.1094  13.5507  13.7581  14.3107
    14.7039  15.1003  15.5614  15.9645  16.2090  16.5137

          k = 0.6500 0.0000 0.0000 (  8709 PWs)   bands (ev):

   -13.9360 -13.5826 -13.3306 -12.9778 -11.4481 -10.8453  -1.4428  -0.9984
    -0.7051  -0.2760   9.1316   9.7389  10.7100  11.1475  11.3729  11.6172
    12.0784  12.2501  12.4556  12.8946  13.1202  13.5296  13.7270  14.4138
    14.7446  14.9389  15.6141  15.9677  16.1362  16.4261

          k = 0.6667 0.0000 0.0000 (  8715 PWs)   bands (ev):

   -13.7525 -13.7485 -13.1458 -13.1456 -11.4749 -10.8722  -1.2529  -1.1623
    -0.5531  -0.4509   9.1289   9.7359  10.8611  11.1581  11.2862  11.8510
    12.0274  12.1049  12.4619  12.9760  13.1141  13.4734  13.7297  14.4660
    14.7750  14.8413  15.7726  15.7807  16.1873  16.3714

          k = 0.6583 0.0144 0.0000 (  8705 PWs)   bands (ev):

   -13.9107 -13.6113 -13.3052 -13.0064 -11.4450 -10.8422  -1.4280  -1.0177
    -0.6872  -0.2904   9.1341   9.7411  10.7809  11.0597  11.3698  11.7478
    11.8753  12.2822  12.5112  12.9300  13.0335  13.5451  13.7643  14.4330
    14.7239  14.9608  15.5753  15.9785  16.1651  16.3998

          k = 0.6500 0.0289 0.0000 (  8714 PWs)   bands (ev):

   -14.0629 -13.5288 -13.4527 -12.9195 -11.3524 -10.7495  -1.6342  -1.0277
    -0.6764  -0.0991   9.1522   9.7576  10.6390  10.9090  11.3603  11.6198
    11.6945  12.2193  12.6917  12.8230  12.9837  13.5884  13.9099  14.4465
    14.6828  15.1376  15.4039  16.0269  16.2341  16.4863

          k = 0.6417 0.0433 0.0000 (  8718 PWs)   bands (ev):

   -14.2071 -13.6065 -13.4826 -12.8831 -11.1998 -10.5966  -1.8324  -1.1913
    -0.5200   0.0800   9.1833   9.7825  10.4847  10.7582  11.2202  11.4718
    11.5181  12.0465  12.4728  12.6994  13.3512  13.6048  13.9554  14.6401
    14.7109  15.1542  15.3664  16.1187  16.2055  16.6563

          k = 0.6333 0.0577 0.0000 (  8720 PWs)   bands (ev):

   -14.3432 -13.7407 -13.4892 -12.8878 -10.9975 -10.3941  -2.0207  -1.3696
    -0.3572   0.2442   9.2239   9.8047  10.3366  10.6192  11.0023  11.2953
    11.3429  11.7874  12.2048  12.5991  13.4645  13.8300  14.0037  14.6354
    15.0078  15.1280  15.3936  16.1565  16.3548  16.5317

          k = 0.6250 0.0722 0.0000 (  8732 PWs)   bands (ev):

   -14.4712 -13.8682 -13.5237 -12.9217 -10.7585 -10.1550  -2.1985  -1.5427
    -0.2084   0.3925   9.2669   9.8006  10.2077  10.4970  10.7312  11.1155
    11.1754  11.4432  11.9952  12.4999  13.3922  13.8118  14.4334  14.6264
    14.9471  15.3238  15.6052  16.1330  16.3932  16.6193

          k = 0.6167 0.0866 0.0000 (  8714 PWs)   bands (ev):

   -14.5910 -13.9878 -13.5765 -12.9742 -10.4949  -9.8914  -2.3655  -1.7068
    -0.0771   0.5247   9.3005   9.7434  10.0702  10.3524  10.5203  10.9479
    10.9601  11.1200  11.8265  12.4070  13.2888  13.7547  14.5133  14.7984
    15.1010  15.3284  15.9267  16.1296  16.3945  16.7715

          k = 0.6083 0.1010 0.0000 (  8722 PWs)   bands (ev):

   -14.7027 -14.0993 -13.6398 -13.0373 -10.2162  -9.6128  -2.5215  -1.8609
     0.0364   0.6411   9.3107   9.6362   9.7975  10.2172  10.4644  10.5967
    10.7972  10.9758  11.6797  12.3251  13.1759  13.6923  14.4462  14.7799
    15.3133  15.6068  16.0107  16.0929  16.5897  16.9876

          k = 0.6000 0.1155 0.0000 (  8728 PWs)   bands (ev):

   -14.8061 -14.2026 -13.7079 -13.1052  -9.9299  -9.3265  -2.6663  -2.0043
     0.1327   0.7421   9.2768   9.4107   9.5316  10.0168  10.3513  10.4405
    10.6582  10.9184  11.5486  12.2582  13.0641  13.6252  14.3793  14.7316
    15.3532  15.8521  15.9970  16.3098  16.6580  17.3115

          k = 0.5917 0.1299 0.0000 (  8712 PWs)   bands (ev):

   -14.9014 -14.2978 -13.7771 -13.1743  -9.6418  -9.0386  -2.7998  -2.1367
     0.2129   0.8287   8.9785   9.2575   9.3990   9.6361  10.3198  10.3925
    10.5354  10.9314  11.4334  12.2088  12.9593  13.5551  14.3266  14.6766
    15.4017  15.8124  16.0297  16.4773  16.9791  17.3211

          k = 0.5833 0.1443 0.0000 (  8714 PWs)   bands (ev):

   -14.9884 -14.3848 -13.8448 -13.2419  -9.3571  -8.7540  -2.9220  -2.2580
     0.2788   0.9019   8.5750   9.1564   9.2508   9.2819  10.2922  10.3390
    10.4518  10.9846  11.3402  12.1772  12.8654  13.4844  14.2927  14.6227
    15.4439  15.7747  16.0530  16.4660  17.3331  17.4085

          k = 0.5750 0.1588 0.0000 (  8708 PWs)   bands (ev):

   -15.0672 -14.4635 -13.9091 -13.3062  -9.0802  -8.4773  -3.0327  -2.3680
     0.3319   0.9629   8.1791   8.8081   9.1250   9.1655  10.2107  10.2654
    10.4508  11.0268  11.2904  12.1601  12.7856  13.4156  14.2769  14.5763
    15.4669  15.7757  16.0720  16.4472  17.3527  17.5668

          k = 0.5667 0.1732 0.0000 (  8724 PWs)   bands (ev):

   -15.1377 -14.5340 -13.9688 -13.3658  -8.8156  -8.2128  -3.1320  -2.4666
     0.3742   1.0130   7.8020   8.4303   9.0449   9.0626  10.1239  10.1753
    10.4764  11.0123  11.3115  12.1514  12.7224  13.3503  14.2734  14.5415
    15.4783  15.8034  16.0947  16.4475  17.3843  17.6640

          k = 0.5583 0.1876 0.0000 (  8724 PWs)   bands (ev):

   -15.1999 -14.5962 -14.0229 -13.4199  -8.5675  -7.9649  -3.2197  -2.5538
     0.4072   1.0536   7.4512   8.0775   8.9689   8.9725  10.0424  10.0907
    10.4962  10.9599  11.3749  12.1439  12.6774  13.2900  14.2739  14.5200
    15.4950  15.8316  16.1346  16.4755  17.4330  17.7728

          k = 0.5500 0.2021 0.0000 (  8716 PWs)   bands (ev):

   -15.2539 -14.6501 -14.0708 -13.4678  -8.3403  -7.7378  -3.2958  -2.6294
     0.4326   1.0859   7.1325   7.7571   8.8901   8.9039   9.9694  10.0157
    10.5059  10.9012  11.4436  12.1326  12.6497  13.2358  14.2718  14.5089
    15.5213  15.8443  16.2090  16.5298  17.5016  17.8963

          k = 0.5417 0.2165 0.0000 (  8714 PWs)   bands (ev):

   -15.2995 -14.6958 -14.1120 -13.5090  -8.1383  -7.5360  -3.3602  -2.6935
     0.4516   1.1111   6.8516   7.4749   8.8218   8.8451   9.9064   9.9514
    10.5072  10.8471  11.5041  12.1165  12.6361  13.1885  14.2662  14.5021
    15.5499  15.8410  16.3282  16.6008  17.5904  18.0283

          k = 0.5333 0.2309 0.0000 (  8716 PWs)   bands (ev):

   -15.3369 -14.7331 -14.1462 -13.5431  -7.9658  -7.3636  -3.4130  -2.7460
     0.4656   1.1302   6.6136   7.2360   8.7656   8.7959   9.8542   9.8985
    10.5030  10.8013  11.5524  12.0978  12.6317  13.1490  14.2591  14.4955
    15.5725  15.8288  16.4860  16.6760  17.6974  18.1574

          k = 0.5250 0.2454 0.0000 (  8720 PWs)   bands (ev):

   -15.3660 -14.7622 -14.1730 -13.5699  -7.8268  -7.2247  -3.4541  -2.7869
     0.4755   1.1442   6.4230   7.0447   8.7218   8.7571   9.8132   9.8570
    10.4966  10.7651  11.5880  12.0796  12.6322  13.1177  14.2525  14.4882
    15.5864  15.8142  16.6588  16.7442  17.8175  18.2747

          k = 0.5167 0.2598 0.0000 (  8724 PWs)   bands (ev):

   -15.3868 -14.7829 -14.1922 -13.5891  -7.7247  -7.1227  -3.4834  -2.8161
     0.4819   1.1537   6.2838   6.9051   8.6904   8.7290   9.7837   9.8273
    10.4903  10.7390  11.6119  12.0648  12.6344  13.0951  14.2473  14.4814
    15.5936  15.8016  16.7964  16.8141  17.9413  18.3912

          k = 0.5083 0.2742 0.0000 (  8734 PWs)   bands (ev):

   -15.3992 -14.7954 -14.2038 -13.6007  -7.6623  -7.0603  -3.5010  -2.8336
     0.4856   1.1591   6.1990   6.8201   8.6715   8.7121   9.7660   9.8094
    10.4859  10.7232  11.6256  12.0552  12.6363  13.0814  14.2441  14.4766
    15.5967  15.7933  16.8300  16.9188  18.0504  18.5020

          k = 0.5000 0.2887 0.0000 (  8730 PWs)   bands (ev):

   -15.4034 -14.7996 -14.2077 -13.6046  -7.6413  -7.0393  -3.5069  -2.8395
     0.4868   1.1609   6.1706   6.7915   8.6652   8.7064   9.7601   9.8035
    10.4843  10.7180  11.6301  12.0519  12.6370  13.0768  14.2431  14.4749
    15.5975  15.7904  16.8413  16.9557  18.1003  18.5358

          k = 0.4833 0.2791 0.0000 (  8740 PWs)   bands (ev):

   -15.4981 -14.8929 -14.1049 -13.5006  -7.6350  -7.0330  -3.5537  -2.8736
     0.5340   1.2143   6.1739   6.7948   8.1727   9.2048   9.2850  10.1207
    10.3068  11.0643  11.3905  12.2226  12.4459  13.3511  13.8968  14.8263
    15.2714  16.1024  16.5924  17.2282  18.0539  18.4049

          k = 0.4667 0.2694 0.0000 (  8726 PWs)   bands (ev):

   -15.7202 -15.1136 -13.8558 -13.2505  -7.6162  -7.0142  -3.6853  -2.9739
     0.6720   1.3670   6.1839   6.8046   7.6753   8.7847   9.6659   9.7670
    10.8185  10.9846  11.5077  11.9668  12.7088  13.4235  13.8376  14.7886
    15.3640  16.1266  16.6514  17.5373  17.9171  18.1308

          k = 0.4500 0.2598 0.0000 (  8732 PWs)   bands (ev):

   -15.9926 -15.3851 -13.5371 -12.9315  -7.5849  -6.9829  -3.8816  -3.1323
     0.8905   1.6008   6.2002   6.8207   7.1940   8.3099   9.2352  10.2965
    10.5754  11.3774  11.4250  12.1053  12.8501  13.2558  14.1767  14.4942
    15.7223  15.9386  17.0086  17.6963  17.7768  17.8365

          k = 0.4333 0.2502 0.0000 (  8724 PWs)   bands (ev):

   -16.2807 -15.6727 -13.1838 -12.5782  -7.5413  -6.9393  -4.1215  -3.3363
     1.1746   1.8963   6.2221   6.7293   6.8435   7.8510   8.8052  10.1524
    10.8607  11.0572  11.9244  12.4257  12.6235  13.5303  13.9627  14.8032
    15.4820  16.3590  17.2999  17.4008  17.4812  17.9862

          k = 0.4167 0.2406 0.0000 (  8732 PWs)   bands (ev):

   -16.5710 -15.9625 -12.8101 -12.2046  -7.4854  -6.8834  -4.3884  -3.5722
     1.5094   2.2369   6.2268   6.3052   6.8706   7.4092   8.3880   9.7585
    10.6341  11.4515  12.0736  12.4720  13.0058  13.4536  14.0553  14.9993
    15.4366  16.8198  17.0414  17.0792  17.5349  17.6421

          k = 0.4000 0.2309 0.0000 (  8718 PWs)   bands (ev):

   -16.8574 -16.2486 -12.4221 -11.8169  -7.4176  -6.8156  -4.6703  -3.8284
     1.8820   2.6106   5.8432   6.2908   6.8954   6.9924   7.9860   9.3708
    10.2504  11.6642  12.0333  12.9090  13.0792  13.5632  14.3416  14.8287
    15.8253  16.6292  16.7104  17.2301  17.2412  17.5701

          k = 0.3833 0.2213 0.0000 (  8712 PWs)   bands (ev):

   -17.1370 -16.5279 -12.0235 -11.4185  -7.3379  -6.7360  -4.9588  -4.0956
     2.2822   3.0084   5.4304   6.3198   6.5820   6.9407   7.6030   8.9935
     9.8764  11.2889  12.5639  12.6216  13.5045  13.9700  14.3399  14.9652
    16.1747  16.1937  16.3905  16.7759  17.3723  17.7657

          k = 0.3667 0.2117 0.0000 (  8714 PWs)   bands (ev):

   -17.4081 -16.7987 -11.6164 -11.0116  -7.2469  -6.6450  -5.2485  -4.3673
     2.7021   3.4236   5.0345   6.1535   6.4027   6.9548   7.2589   8.6286
     9.5151  10.9196  12.2448  13.0757  13.8030  14.0782  14.6028  15.2821
    15.6876  16.0116  16.2889  16.5442  17.3860  18.0451

          k = 0.3500 0.2021 0.0000 (  8694 PWs)   bands (ev):

   -17.6697 -17.0599 -11.2025 -10.5979  -7.1448  -6.5429  -5.5351  -4.6388
     3.1344   3.8507   4.6577   5.7900   6.4411   6.7969   7.1092   8.2774
     9.1676  10.5641  11.8863  13.4542  13.6190  14.4220  15.0648  15.1761
    15.4865  15.7776  15.8163  16.7322  17.4665  18.2169

          k = 0.3333 0.1925 0.0000 (  8702 PWs)   bands (ev):

   -17.9209 -17.3109 -10.7831 -10.1788  -7.0321  -6.4302  -5.8159  -4.9066
     3.5686   4.2656   4.3255   5.4348   6.4545   6.5214   7.1356   7.9413
     8.8348  10.2236  11.5403  13.2739  13.7797  14.6478  14.7419  15.2494
    15.2660  15.4884  16.0807  16.9041  17.5576  18.3594

          k = 0.3167 0.1828 0.0000 (  8710 PWs)   bands (ev):

   -18.1615 -17.5512 -10.3596  -9.7556  -6.9093  -6.3074  -6.0888  -5.1681
     3.8578   4.1157   4.7265   5.0985   6.1565   6.5566   7.1864   7.6226
     8.5173   9.8986  11.2087  12.9833  13.8983  14.1087  14.7105  14.8403
    14.9985  15.8831  16.5276  17.0542  17.6874  18.5905

          k = 0.3000 0.1732 0.0000 (  8722 PWs)   bands (ev):

   -18.3909 -17.7803  -9.9335  -9.3296  -6.7771  -6.3522  -6.1752  -5.4215
     3.5930   4.4866   4.7852   5.1715   5.8538   6.6122   7.2354   7.3319
     8.2163   9.5894  10.8925  12.6973  13.5646  13.8886  14.1665  14.6432
    14.8148  16.3164  16.9616  17.1352  18.0165  18.8335

          k = 0.2833 0.1636 0.0000 (  8702 PWs)   bands (ev):

   -18.6089 -17.9981  -9.5060  -8.9024  -6.6361  -6.6049  -6.0343  -5.6654
     3.2895   4.4434   4.9563   5.5297   5.6498   6.6581   7.0488   7.3095
     7.9339   9.2964  10.5924  12.4218  13.0199  13.6220  13.7786  14.3679
    14.6090  16.6249  17.0334  17.6152  18.4959  18.8146

          k = 0.2667 0.1540 0.0000 (  8698 PWs)   bands (ev):

   -18.8153 -18.2042  -9.0788  -8.4754  -6.8459  -6.4873  -5.8986  -5.8855
     2.9989   4.1613   5.1936   5.4865   6.0363   6.6379   6.8783   7.3585
     7.6788   9.0199  10.3085  12.1587  12.4791  13.0812  13.5978  14.0967
    14.3587  16.5824  17.2981  18.1624  18.6458  19.1338

          k = 0.2500 0.1443 0.0000 (  8714 PWs)   bands (ev):

   -19.0098 -18.3985  -8.6535  -8.0503  -7.0747  -6.3317  -6.1202  -5.7299
     2.7246   3.8908   4.9798   5.8778   6.3045   6.6015   6.8794   7.3322
     7.5214   8.7601  10.0412  11.9092  11.9459  12.5481  13.3711  13.8365
    14.0841  16.4159  17.5842  18.3820  18.9435  19.7396

          k = 0.2333 0.1347 0.0000 (  8708 PWs)   bands (ev):

   -19.1924 -18.5808  -8.2320  -7.6291  -7.2904  -6.3297  -6.1703  -5.5685
     2.4675   3.6366   4.7405   6.1515   6.3014   6.8702   6.9677   7.1811
     7.5397   8.5176   9.7908  11.4237  11.6740  12.0259  13.1167  13.5896
    13.7981  16.2299  17.7128  18.4567  19.5306  20.3568

          k = 0.2167 0.1251 0.0000 (  8734 PWs)   bands (ev):

   -19.3628 -18.7511  -7.8166  -7.4929  -7.2137  -6.5263  -6.0045  -5.4027
     2.2277   3.3994   4.5130   5.9424   6.6770   6.9119   6.9920   7.3973
     7.5923   8.2942   9.5572  10.9158  11.4538  11.5182  12.8478  13.3568
    13.5103  16.0436  17.6510  18.6852  20.0963  20.9444

          k = 0.2000 0.1155 0.0000 (  8755 PWs)   bands (ev):

   -19.5210 -18.9091  -7.6814  -7.4094  -6.8069  -6.7096  -5.8358  -5.2341
     2.0056   3.1795   4.3009   5.7373   6.6554   7.0275   7.1649   7.6460
     7.7641   8.1024   9.3406  10.4255  11.0279  11.2488  12.5748  13.1350
    13.2310  15.8636  17.5139  18.9662  20.5584  21.4453

          k = 0.1833 0.1058 0.0000 (  8749 PWs)   bands (ev):

   -19.6668 -19.0547  -7.8557  -7.0133  -6.8794  -6.4108  -5.6660  -5.0644
     1.8011   2.9771   4.1050   5.5453   6.4808   7.0785   7.5273   7.7022
     7.8576   8.1996   9.1412   9.9558  10.5583  11.0594  12.3057  12.9064
    12.9844  15.6932  17.3607  19.2296  20.8503  21.8038

          k = 0.1667 0.0962 0.0000 (  8755 PWs)   bands (ev):

   -19.8003 -19.1880  -8.0156  -7.0354  -6.6310  -6.0288  -5.4971  -4.8955
     1.6142   2.7921   3.9256   5.3684   6.3109   7.1191   7.6799   7.7178
     7.9357   8.5465   8.9591   9.5099  10.1125  10.8859  12.0473  12.6582
    12.7883  15.5345  17.2097  19.4438  20.9646  22.0578

          k = 0.1500 0.0866 0.0000 (  8769 PWs)   bands (ev):

   -19.9212 -19.3088  -8.1609  -7.1771  -6.2663  -5.6642  -5.3313  -4.7297
     1.4451   2.6247   3.7631   5.2076   6.1545   7.1491   7.5305   7.7539
     8.2686   8.7920   8.8879   9.0911   9.6937  10.7284  11.8054  12.4170
    12.6206  15.3886  17.0675  19.5966  20.9648  22.3460

          k = 0.1333 0.0770 0.0000 (  8783 PWs)   bands (ev):

   -20.0296 -19.4170  -8.2913  -7.3043  -5.9226  -5.3207  -5.1711  -4.5696
     1.2938   2.4749   3.6176   5.0632   6.0133   7.1668   7.3911   7.7746
     8.5814   8.6505   8.7026   9.2033   9.3053  10.5871  11.5846  12.1956
    12.4727  15.2565  16.9371  19.6914  20.9134  22.5570

          k = 0.1167 0.0674 0.0000 (  8785 PWs)   bands (ev):

   -20.1253 -19.5126  -8.4067  -7.4170  -5.6040  -5.0193  -5.0023  -4.4179
     1.1602   2.3426   3.4890   4.9355   5.8882   7.1683   7.2719   7.7829
     8.3479   8.5123   8.8799   8.9507   9.4927  10.4622  11.3887  11.9990
    12.3427  15.1388  16.8199  19.7409  20.8437  22.4210

          k = 0.1000 0.0577 0.0000 (  8785 PWs)   bands (ev):

   -20.2084 -19.5956  -8.5069  -7.5149  -5.3149  -4.8789  -4.7133  -4.2775
     1.0444   2.2280   3.3775   4.8247   5.7794   7.1291   7.1988   7.7803
     8.0306   8.3987   8.6334   9.1397   9.7514  10.3537  11.2201  11.8300
    12.2301  15.0359  16.7171  19.7596  20.7713  22.2562

          k = 0.0833 0.0481 0.0000 (  8787 PWs)   bands (ev):

   -20.2787 -19.6658  -8.5920  -7.5979  -5.0598  -4.7529  -4.4582  -4.1515
     0.9464   2.1310   3.2832   4.7308   5.6872   7.0493   7.1738   7.7542
     7.7688   8.3018   8.3570   9.3657   9.9760  10.2618  11.0802  11.6896
    12.1348  14.9483  16.6292  19.7597  20.7038  22.0931

          k = 0.0667 0.0385 0.0000 (  8785 PWs)   bands (ev):

   -20.3363 -19.7234  -8.6616  -7.6660  -4.8431  -4.6444  -4.2416  -4.0431
     0.8662   2.0516   3.2059   4.6539   5.6117   6.9764   7.1528   7.5222
     7.7514   8.1250   8.2220   9.5549  10.1623  10.1881  10.9688  11.5778
    12.0568  14.8763  16.5567  19.7503  20.6451  21.9467

          k = 0.0500 0.0289 0.0000 (  8783 PWs)   bands (ev):

   -20.3812 -19.7681  -8.7159  -7.7190  -4.6692  -4.5564  -4.0678  -3.9550
     0.8039   1.9899   3.1458   4.5941   5.5529   6.9184   7.1314   7.3377
     7.7320   7.9406   8.1595   9.7049  10.1274  10.3129  10.8852  11.4936
    11.9960  14.8200  16.4999  19.7375  20.5977  21.8257

          k = 0.0333 0.0192 0.0000 (  8795 PWs)   bands (ev):

   -20.4132 -19.8001  -8.7547  -7.7569  -4.5419  -4.4914  -3.9406  -3.8901
     0.7593   1.9458   3.1029   4.5513   5.5109   6.8768   7.1126   7.2037
     7.7145   7.8066   8.1146   9.8135  10.0856  10.4198  10.8278  11.4353
    11.9526  14.7797  16.4592  19.7258  20.5630  21.7358

          k = 0.0167 0.0096 0.0000 (  8795 PWs)   bands (ev):

   -20.4324 -19.8193  -8.7780  -7.7797  -4.4642  -4.4515  -3.8629  -3.8502
     0.7326   1.9193   3.0772   4.5257   5.4857   6.8517   7.0997   7.1224
     7.7024   7.7253   8.0876   9.8793  10.0605  10.4841  10.7947  11.4012
    11.9265  14.7554  16.4347  19.7177  20.5418  21.6805

          k = 0.0000 0.0000 0.0000 (  8771 PWs)   bands (ev):

   -20.4388 -19.8257  -8.7857  -7.7873  -4.4381  -4.4381  -3.8368  -3.8368
     0.7237   1.9105   3.0686   4.5171   5.4773   6.8434   7.0951   7.0951
     7.6981   7.6981   8.0785   9.9013  10.0521  10.5055  10.7840  11.3900
    11.9178  14.7473  16.4265  19.7148  20.5347  21.6619

     Writing all to output data dir ../tmp/bi-gr.save/
 
     init_run     :      8.96s CPU      9.04s WALL (       1 calls)
     electrons    :    114.46s CPU    132.15s WALL (       1 calls)

     Called by init_run:
     wfcinit      :      0.00s CPU      0.00s WALL (       1 calls)
     potinit      :      8.88s CPU      8.91s WALL (       1 calls)
     hinit0       :      0.05s CPU      0.11s WALL (       1 calls)

     Called by electrons:
     c_bands      :    114.46s CPU    132.14s WALL (       1 calls)
     v_of_rho     :      8.88s CPU      8.91s WALL (       1 calls)
     newd         :      0.00s CPU      0.01s WALL (       1 calls)
     vdW_kernel   :      8.82s CPU      8.84s WALL (       1 calls)

     Called by c_bands:
     init_us_2    :      0.02s CPU      0.02s WALL (      91 calls)
     init_us_2:cp :      0.02s CPU      0.02s WALL (      91 calls)
     cegterg      :    112.34s CPU    129.76s WALL (     459 calls)

     Called by *egterg:
     cdiaghg      :      6.18s CPU      6.70s WALL (    8548 calls)
     h_psi        :     83.35s CPU     98.68s WALL (    9007 calls)
     s_psi        :      1.65s CPU      1.91s WALL (    9007 calls)
     g_psi        :      0.59s CPU      0.61s WALL (    8457 calls)

     Called by h_psi:
     h_psi:calbec :      2.27s CPU      2.72s WALL (    9007 calls)
     vloc_psi     :     79.24s CPU     93.83s WALL (    9007 calls)
     add_vuspsi   :      1.66s CPU      1.95s WALL (    9007 calls)

     General routines
     calbec       :      2.27s CPU      2.71s WALL (    9007 calls)
     fft          :      0.04s CPU      0.10s WALL (      62 calls)
     fftw         :     75.64s CPU     89.58s WALL (  280580 calls)
     davcio       :      0.05s CPU      0.08s WALL (     182 calls)
 
     Parallel routines
 
     PWSCF        :   2m 3.65s CPU   2m21.73s WALL

 
   This run was terminated on:  10:49:11   3Feb2022            

=------------------------------------------------------------------------------=
   JOB DONE.
=------------------------------------------------------------------------------=
