ANIMSTEPS    9
CRYSTAL
PRIMVEC
    3.137805538    0.000000000    0.000000000
   -1.568902769    2.717419308    0.000000000
    0.000000000    0.000000000   20.000000045
PRIMCOORD    1
      3   1
   Mo     0.00000   0.00000  10.00000   0.02515   0.05166   0.00564
   S     -0.00000   1.81161   8.43714   0.02515   0.05166   0.00564
   S     -0.00000   1.81161  11.56285   0.02515   0.05166   0.00564
PRIMCOORD    2
      3   1
   Mo     0.00000   0.00000  10.00000  -0.05051   0.02578  -0.01085
   S     -0.00000   1.81161   8.43714  -0.05051   0.02578  -0.01085
   S     -0.00000   1.81161  11.56285  -0.05051   0.02578  -0.01085
PRIMCOORD    3
      3   1
   Mo     0.00000   0.00000  10.00000   0.01223   0.00020  -0.05642
   S     -0.00000   1.81161   8.43714   0.01223   0.00020  -0.05642
   S     -0.00000   1.81161  11.56285   0.01223   0.00020  -0.05642
PRIMCOORD    4
      3   1
   Mo     0.00000   0.00000  10.00000   0.00000  -0.00000  -0.00000
   S     -0.00000   1.81161   8.43714  -0.07025  -0.00805   0.00000
   S     -0.00000   1.81161  11.56285   0.07025   0.00805  -0.00000
PRIMCOORD    5
      3   1
   Mo     0.00000   0.00000  10.00000   0.00000   0.00000   0.00000
   S     -0.00000   1.81161   8.43714   0.00805  -0.07025  -0.00000
   S     -0.00000   1.81161  11.56285  -0.00805   0.07025  -0.00000
PRIMCOORD    6
      3   1
   Mo     0.00000   0.00000  10.00000  -0.03667   0.02193  -0.00000
   S     -0.00000   1.81161   8.43714   0.05487  -0.03281   0.00000
   S     -0.00000   1.81161  11.56285   0.05487  -0.03281  -0.00000
PRIMCOORD    7
      3   1
   Mo     0.00000   0.00000  10.00000  -0.02193  -0.03667  -0.00000
   S     -0.00000   1.81161   8.43714   0.03281   0.05487   0.00000
   S     -0.00000   1.81161  11.56285   0.03281   0.05487  -0.00000
PRIMCOORD    8
      3   1
   Mo     0.00000   0.00000  10.00000   0.00000  -0.00000  -0.00000
   S     -0.00000   1.81161   8.43714  -0.00000   0.00000   0.07071
   S     -0.00000   1.81161  11.56285  -0.00000   0.00000  -0.07071
PRIMCOORD    9
      3   1
   Mo     0.00000   0.00000  10.00000   0.00000  -0.00000  -0.04273
   S     -0.00000   1.81161   8.43714  -0.00000   0.00000   0.06393
   S     -0.00000   1.81161  11.56285  -0.00000   0.00000   0.06393
