[Molden Format]
[FREQ]
    0.00
    0.00
    0.00
  284.12
  284.12
  384.29
  384.29
  404.00
  464.46
[FR-COORD]
   Mo          0.00000        0.00000       18.89726
   S          -0.00000        3.42345       15.94389
   S          -0.00000        3.42345       21.85063
[FR-NORM-COORD]
 vibration     1
   0.25152   0.51661   0.05639
   0.25152   0.51661   0.05639
   0.25152   0.51661   0.05639
 vibration     2
  -0.50509   0.25776  -0.10853
  -0.50509   0.25776  -0.10853
  -0.50509   0.25776  -0.10853
 vibration     3
   0.12228   0.00205  -0.56425
   0.12228   0.00205  -0.56425
   0.12228   0.00205  -0.56425
 vibration     4
   0.00000  -0.00000  -0.00000
  -0.70251  -0.08050   0.00000
   0.70251   0.08050  -0.00000
 vibration     5
   0.00000   0.00000   0.00000
   0.08050  -0.70251  -0.00000
  -0.08050   0.70251  -0.00000
 vibration     6
  -0.36674   0.21934  -0.00000
   0.54866  -0.32813   0.00000
   0.54866  -0.32813  -0.00000
 vibration     7
  -0.21934  -0.36674  -0.00000
   0.32813   0.54866   0.00000
   0.32813   0.54866  -0.00000
 vibration     8
   0.00000  -0.00000  -0.00000
  -0.00000   0.00000   0.70711
  -0.00000   0.00000  -0.70711
 vibration     9
   0.00000  -0.00000  -0.42733
  -0.00000   0.00000   0.63929
  -0.00000   0.00000   0.63929
