
     Program BANDS v.7.0 starts on  1Feb2022 at  5:46:19 

     This program is part of the open-source Quantum ESPRESSO suite
     for quantum simulation of materials; please cite
         "P. Giannozzi et al., J. Phys.:Condens. Matter 21 395502 (2009);
         "P. Giannozzi et al., J. Phys.:Condens. Matter 29 465901 (2017);
         "P. Giannozzi et al., J. Chem. Phys. 152 154105 (2020);
          URL http://www.quantum-espresso.org", 
     in publications or presentations arising from this work. More details at
     http://www.quantum-espresso.org/quote

     Parallel version (MPI), running on     4 processors

     MPI processes distributed on     1 nodes
     R & G space division:  proc/nbgrp/npool/nimage =       4
     250546 MiB available memory on the printing compute node when the environment starts
 

     Reading xml data from directory:

     ../tmp/gr.save/

     IMPORTANT: XC functional enforced from input :
     Exchange-correlation= PBE
                           (   1   4   3   4   0   0   0)
     Any further DFT definition will be discarded
     Please, verify this is what you really want

 
     Parallelization info
     --------------------
     sticks:   dense  smooth     PW     G-vecs:    dense   smooth      PW
     Min          60      60     20                 4546     4546     852
     Max          61      61     22                 4565     4565     860
     Sum         241     241     85                18211    18211    3425
 
     Using Slab Decomposition
 

     Check: negative core charge=   -0.000016

     negative rho (up, down):  4.226E-04 0.000E+00
     Reading collected, re-writing distributed wavefunctions
     high-symmetry point:  0.0000 0.0000 0.0000   x coordinate   0.0000
     high-symmetry point:  0.6667 0.0000 0.0000   x coordinate   0.6667
     high-symmetry point:  0.5000 0.2887 0.0000   x coordinate   1.0000
     high-symmetry point:  0.0000 0.0000 0.0000   x coordinate   1.5774

     Plottable bands (eV) written to file gr.bands.gnu
     Bands written to file gr.bands

 **************************************************************************

                    xk=(   0.00000,   0.00000,   0.00000  )

     point group D_6h(6/mmm)
     there are 12 classes
     the character table:

       E     2C6   2C3   C2    3C2'  3C2'' i     2S3   2S6   s_h   3s_d  3s_v 
A_1g   1.00  1.00  1.00  1.00  1.00  1.00  1.00  1.00  1.00  1.00  1.00  1.00
A_2g   1.00  1.00  1.00  1.00 -1.00 -1.00  1.00  1.00  1.00  1.00 -1.00 -1.00
B_1g   1.00 -1.00  1.00 -1.00  1.00 -1.00  1.00 -1.00  1.00 -1.00  1.00 -1.00
B_2g   1.00 -1.00  1.00 -1.00 -1.00  1.00  1.00 -1.00  1.00 -1.00 -1.00  1.00
E_1g   2.00  1.00 -1.00 -2.00  0.00  0.00  2.00  1.00 -1.00 -2.00  0.00  0.00
E_2g   2.00 -1.00 -1.00  2.00  0.00  0.00  2.00 -1.00 -1.00  2.00  0.00  0.00
A_1u   1.00  1.00  1.00  1.00  1.00  1.00 -1.00 -1.00 -1.00 -1.00 -1.00 -1.00
A_2u   1.00  1.00  1.00  1.00 -1.00 -1.00 -1.00 -1.00 -1.00 -1.00  1.00  1.00
B_1u   1.00 -1.00  1.00 -1.00  1.00 -1.00 -1.00  1.00 -1.00  1.00 -1.00  1.00
B_2u   1.00 -1.00  1.00 -1.00 -1.00  1.00 -1.00  1.00 -1.00  1.00  1.00 -1.00
E_1u   2.00  1.00 -1.00 -2.00  0.00  0.00 -2.00 -1.00  1.00  2.00  0.00  0.00
E_2u   2.00 -1.00 -1.00  2.00  0.00  0.00 -2.00  1.00  1.00 -2.00  0.00  0.00

     the symmetry operations in each class and the name of the first element:

     E        1
                                                                 
     2C6      5    6
                                                                 
     2C3      7    8
                                                                 
     C2       2
                                                                 
     3C2'     4   12   11
                                                                 
     3C2''    3    9   10
                                                                 
     i       13
                                                                 
     2S3     17   18
                                                                 
     2S6     19   20
                                                                 
     s_h     14
                                                                 
     3s_d    16   24   23
                                                                 
     3s_v    15   21   22
                                                                 

     Band symmetry, D_6h(6/mmm) point group:

     e(  1 -  1) =    -21.25896  eV     1   --> A_1g           
     e(  2 -  2) =     -9.35855  eV     1   --> A_2u           
     e(  3 -  4) =     -4.80112  eV     2   --> E_2g           
     e(  5 -  5) =      1.15754  eV     1   --> A_1g           
     e(  6 -  6) =      1.90001  eV     1   --> A_2u           
     e(  7 -  7) =      2.12592  eV     1   --> A_1g           
     e(  8 -  8) =      4.13946  eV     1   --> A_2u           
     e(  9 -  9) =      4.93682  eV     1   --> A_1g           
     e( 10 - 11) =      6.58769  eV     2   --> E_1u           
     e( 12 - 12) =      8.09699  eV     1   --> A_2u           
     e( 13 - 13) =      9.24287  eV     1   --> A_1g           
     e( 14 - 14) =      9.71874  eV     1   --> B_1g           
     e( 15 - 15) =     10.83734  eV     1   --> B_2u           
     e( 16 - 16) =     13.47014  eV     1   --> A_2u           

 **************************************************************************

 **************************************************************************

                    xk=(   0.01667,   0.00000,   0.00000  )

     point group C_2v (mm2) 
     there are  4 classes
     the character table:

       E     C2    s_v   s_v' 
A_1    1.00  1.00  1.00  1.00
A_2    1.00  1.00 -1.00 -1.00
B_1    1.00 -1.00  1.00 -1.00
B_2    1.00 -1.00 -1.00  1.00

     the symmetry operations in each class and the name of the first element:

     E        1
                                                                 
     C2       2
                                                                 
     s_v      4
                                                                 
     s_v'     3
                                                                 

     Band symmetry, C_2v (mm2)  point group:

     e(  1 -  1) =    -21.25405  eV     1   --> A_1  D_1  S_1  
     e(  2 -  2) =     -9.35265  eV     1   --> B_1  D_3  S_3  
     e(  3 -  3) =     -4.82161  eV     1   --> B_2  D_4  S_4  
     e(  4 -  4) =     -4.81204  eV     1   --> A_1  D_1  S_1  
     e(  5 -  5) =      1.16432  eV     1   --> A_1  D_1  S_1  
     e(  6 -  6) =      1.90681  eV     1   --> B_1  D_3  S_3  
     e(  7 -  7) =      2.13269  eV     1   --> A_1  D_1  S_1  
     e(  8 -  8) =      4.14617  eV     1   --> B_1  D_3  S_3  
     e(  9 -  9) =      4.94344  eV     1   --> A_1  D_1  S_1  
     e( 10 - 10) =      6.59090  eV     1   --> A_1  D_1  S_1  
     e( 11 - 11) =      6.60927  eV     1   --> B_2  D_4  S_4  
     e( 12 - 12) =      8.10353  eV     1   --> B_1  D_3  S_3  
     e( 13 - 13) =      9.24968  eV     1   --> A_1  D_1  S_1  
     e( 14 - 14) =      9.70135  eV     1   --> A_2  D_2  S_2  
     e( 15 - 15) =     10.84580  eV     1   --> B_2  D_4  S_4  
     e( 16 - 16) =     13.47623  eV     1   --> B_1  D_3  S_3  

 **************************************************************************

 **************************************************************************

                    xk=(   0.03333,   0.00000,   0.00000  )

     Band symmetry, C_2v (mm2)  point group:

     e(  1 -  1) =    -21.23929  eV     1   --> A_1  D_1  S_1  
     e(  2 -  2) =     -9.33496  eV     1   --> B_1  D_3  S_3  
     e(  3 -  3) =     -4.88239  eV     1   --> B_2  D_4  S_4  
     e(  4 -  4) =     -4.84462  eV     1   --> A_1  D_1  S_1  
     e(  5 -  5) =      1.18465  eV     1   --> A_1  D_1  S_1  
     e(  6 -  6) =      1.92722  eV     1   --> B_1  D_3  S_3  
     e(  7 -  7) =      2.15300  eV     1   --> A_1  D_1  S_1  
     e(  8 -  8) =      4.16628  eV     1   --> B_1  D_3  S_3  
     e(  9 -  9) =      4.96331  eV     1   --> A_1  D_1  S_1  
     e( 10 - 10) =      6.60094  eV     1   --> A_1  D_1  S_1  
     e( 11 - 11) =      6.67317  eV     1   --> B_2  D_4  S_4  
     e( 12 - 12) =      8.12314  eV     1   --> B_1  D_3  S_3  
     e( 13 - 13) =      9.27010  eV     1   --> A_1  D_1  S_1  
     e( 14 - 14) =      9.64933  eV     1   --> A_2  D_2  S_2  
     e( 15 - 15) =     10.87154  eV     1   --> B_2  D_4  S_4  
     e( 16 - 16) =     13.49451  eV     1   --> B_1  D_3  S_3  

 **************************************************************************

 **************************************************************************

                    xk=(   0.05000,   0.00000,   0.00000  )

     Band symmetry, C_2v (mm2)  point group:

     e(  1 -  1) =    -21.21468  eV     1   --> A_1  D_1  S_1  
     e(  2 -  2) =     -9.30549  eV     1   --> B_1  D_3  S_3  
     e(  3 -  3) =     -4.98175  eV     1   --> B_2  D_4  S_4  
     e(  4 -  4) =     -4.89863  eV     1   --> A_1  D_1  S_1  
     e(  5 -  5) =      1.21853  eV     1   --> A_1  D_1  S_1  
     e(  6 -  6) =      1.96123  eV     1   --> B_1  D_3  S_3  
     e(  7 -  7) =      2.18685  eV     1   --> A_1  D_1  S_1  
     e(  8 -  8) =      4.19980  eV     1   --> B_1  D_3  S_3  
     e(  9 -  9) =      4.99643  eV     1   --> A_1  D_1  S_1  
     e( 10 - 10) =      6.61776  eV     1   --> A_1  D_1  S_1  
     e( 11 - 11) =      6.77688  eV     1   --> B_2  D_4  S_4  
     e( 12 - 12) =      8.15581  eV     1   --> B_1  D_3  S_3  
     e( 13 - 13) =      9.30411  eV     1   --> A_1  D_1  S_1  
     e( 14 - 14) =      9.56332  eV     1   --> A_2  D_2  S_2  
     e( 15 - 15) =     10.91514  eV     1   --> B_2  D_4  S_4  
     e( 16 - 16) =     13.52490  eV     1   --> B_1  D_3  S_3  

 **************************************************************************

 **************************************************************************

                    xk=(   0.06667,   0.00000,   0.00000  )

     Band symmetry, C_2v (mm2)  point group:

     e(  1 -  1) =    -21.18025  eV     1   --> A_1  D_1  S_1  
     e(  2 -  2) =     -9.26425  eV     1   --> B_1  D_3  S_3  
     e(  3 -  3) =     -5.11702  eV     1   --> B_2  D_4  S_4  
     e(  4 -  4) =     -4.97356  eV     1   --> A_1  D_1  S_1  
     e(  5 -  5) =      1.26597  eV     1   --> A_1  D_1  S_1  
     e(  6 -  6) =      2.00884  eV     1   --> B_1  D_3  S_3  
     e(  7 -  7) =      2.23425  eV     1   --> A_1  D_1  S_1  
     e(  8 -  8) =      4.24672  eV     1   --> B_1  D_3  S_3  
     e(  9 -  9) =      5.04281  eV     1   --> A_1  D_1  S_1  
     e( 10 - 10) =      6.64184  eV     1   --> A_1  D_1  S_1  
     e( 11 - 11) =      6.91637  eV     1   --> B_2  D_4  S_4  
     e( 12 - 12) =      8.20151  eV     1   --> B_1  D_3  S_3  
     e( 13 - 13) =      9.35165  eV     1   --> A_1  D_1  S_1  
     e( 14 - 14) =      9.44430  eV     1   --> A_2  D_2  S_2  
     e( 15 - 15) =     10.97781  eV     1   --> B_2  D_4  S_4  
     e( 16 - 16) =     13.56733  eV     1   --> B_1  D_3  S_3  

 **************************************************************************

 **************************************************************************

                    xk=(   0.08333,   0.00000,   0.00000  )

     Band symmetry, C_2v (mm2)  point group:

     e(  1 -  1) =    -21.13601  eV     1   --> A_1  D_1  S_1  
     e(  2 -  2) =     -9.21129  eV     1   --> B_1  D_3  S_3  
     e(  3 -  3) =     -5.28487  eV     1   --> B_2  D_4  S_4  
     e(  4 -  4) =     -5.06880  eV     1   --> A_1  D_1  S_1  
     e(  5 -  5) =      1.32696  eV     1   --> A_1  D_1  S_1  
     e(  6 -  6) =      2.07004  eV     1   --> B_1  D_3  S_3  
     e(  7 -  7) =      2.29520  eV     1   --> A_1  D_1  S_1  
     e(  8 -  8) =      4.30702  eV     1   --> B_1  D_3  S_3  
     e(  9 -  9) =      5.10246  eV     1   --> A_1  D_1  S_1  
     e( 10 - 10) =      6.67354  eV     1   --> A_1  D_1  S_1  
     e( 11 - 11) =      7.08644  eV     1   --> B_2  D_4  S_4  
     e( 12 - 12) =      8.26021  eV     1   --> B_1  D_3  S_3  
     e( 13 - 13) =      9.29361  eV     1   --> A_2  D_2  S_2  
     e( 14 - 14) =      9.41265  eV     1   --> A_1  D_1  S_1  
     e( 15 - 15) =     11.06119  eV     1   --> B_2  D_4  S_4  
     e( 16 - 16) =     13.62163  eV     1   --> B_1  D_3  S_3  

 **************************************************************************

 **************************************************************************

                    xk=(   0.10000,   0.00000,   0.00000  )

     Band symmetry, C_2v (mm2)  point group:

     e(  1 -  1) =    -21.08195  eV     1   --> A_1  D_1  S_1  
     e(  2 -  2) =     -9.14664  eV     1   --> B_1  D_3  S_3  
     e(  3 -  3) =     -5.48161  eV     1   --> B_2  D_4  S_4  
     e(  4 -  4) =     -5.18353  eV     1   --> A_1  D_1  S_1  
     e(  5 -  5) =      1.40151  eV     1   --> A_1  D_1  S_1  
     e(  6 -  6) =      2.14483  eV     1   --> B_1  D_3  S_3  
     e(  7 -  7) =      2.36970  eV     1   --> A_1  D_1  S_1  
     e(  8 -  8) =      4.38068  eV     1   --> B_1  D_3  S_3  
     e(  9 -  9) =      5.17539  eV     1   --> A_1  D_1  S_1  
     e( 10 - 10) =      6.71308  eV     1   --> A_1  D_1  S_1  
     e( 11 - 11) =      7.28097  eV     1   --> B_2  D_4  S_4  
     e( 12 - 12) =      8.33187  eV     1   --> B_1  D_3  S_3  
     e( 13 - 13) =      9.11300  eV     1   --> A_2  D_2  S_2  
     e( 14 - 14) =      9.48707  eV     1   --> A_1  D_1  S_1  
     e( 15 - 15) =     11.16723  eV     1   --> B_2  D_4  S_4  
     e( 16 - 16) =     13.68763  eV     1   --> B_1  D_3  S_3  

 **************************************************************************

 **************************************************************************

                    xk=(   0.11667,   0.00000,   0.00000  )

     Band symmetry, C_2v (mm2)  point group:

     e(  1 -  1) =    -21.01811  eV     1   --> A_1  D_1  S_1  
     e(  2 -  2) =     -9.07036  eV     1   --> B_1  D_3  S_3  
     e(  3 -  3) =     -5.70328  eV     1   --> B_2  D_4  S_4  
     e(  4 -  4) =     -5.31683  eV     1   --> A_1  D_1  S_1  
     e(  5 -  5) =      1.48962  eV     1   --> A_1  D_1  S_1  
     e(  6 -  6) =      2.23320  eV     1   --> B_1  D_3  S_3  
     e(  7 -  7) =      2.45776  eV     1   --> A_1  D_1  S_1  
     e(  8 -  8) =      4.46770  eV     1   --> B_1  D_3  S_3  
     e(  9 -  9) =      5.26162  eV     1   --> A_1  D_1  S_1  
     e( 10 - 10) =      6.76125  eV     1   --> A_1  D_1  S_1  
     e( 11 - 11) =      7.49323  eV     1   --> B_2  D_4  S_4  
     e( 12 - 12) =      8.41643  eV     1   --> B_1  D_3  S_3  
     e( 13 - 13) =      8.90431  eV     1   --> A_2  D_2  S_2  
     e( 14 - 14) =      9.57482  eV     1   --> A_1  D_1  S_1  
     e( 15 - 15) =     11.29849  eV     1   --> B_2  D_4  S_4  
     e( 16 - 16) =     13.76503  eV     1   --> B_1  D_3  S_3  

 **************************************************************************

 **************************************************************************

                    xk=(   0.13333,   0.00000,   0.00000  )

     Band symmetry, C_2v (mm2)  point group:

     e(  1 -  1) =    -20.94450  eV     1   --> A_1  D_1  S_1  
     e(  2 -  2) =     -8.98249  eV     1   --> B_1  D_3  S_3  
     e(  3 -  3) =     -5.94609  eV     1   --> B_2  D_4  S_4  
     e(  4 -  4) =     -5.46759  eV     1   --> A_1  D_1  S_1  
     e(  5 -  5) =      1.59128  eV     1   --> A_1  D_1  S_1  
     e(  6 -  6) =      2.33513  eV     1   --> B_1  D_3  S_3  
     e(  7 -  7) =      2.55938  eV     1   --> A_1  D_1  S_1  
     e(  8 -  8) =      4.56804  eV     1   --> B_1  D_3  S_3  
     e(  9 -  9) =      5.36116  eV     1   --> A_1  D_1  S_1  
     e( 10 - 10) =      6.81865  eV     1   --> A_1  D_1  S_1  
     e( 11 - 11) =      7.71634  eV     1   --> B_2  D_4  S_4  
     e( 12 - 12) =      8.51383  eV     1   --> B_1  D_3  S_3  
     e( 13 - 13) =      8.66977  eV     1   --> A_2  D_2  S_2  
     e( 14 - 14) =      9.67583  eV     1   --> A_1  D_1  S_1  
     e( 15 - 15) =     11.45770  eV     1   --> B_2  D_4  S_4  
     e( 16 - 16) =     13.85347  eV     1   --> B_1  D_3  S_3  

 **************************************************************************

 **************************************************************************

                    xk=(   0.15000,   0.00000,   0.00000  )

     Band symmetry, C_2v (mm2)  point group:

     e(  1 -  1) =    -20.86119  eV     1   --> A_1  D_1  S_1  
     e(  2 -  2) =     -8.88313  eV     1   --> B_1  D_3  S_3  
     e(  3 -  3) =     -6.20655  eV     1   --> B_2  D_4  S_4  
     e(  4 -  4) =     -5.63467  eV     1   --> A_1  D_1  S_1  
     e(  5 -  5) =      1.70649  eV     1   --> A_1  D_1  S_1  
     e(  6 -  6) =      2.45063  eV     1   --> B_1  D_3  S_3  
     e(  7 -  7) =      2.67456  eV     1   --> A_1  D_1  S_1  
     e(  8 -  8) =      4.68167  eV     1   --> B_1  D_3  S_3  
     e(  9 -  9) =      5.47400  eV     1   --> A_1  D_1  S_1  
     e( 10 - 10) =      6.88546  eV     1   --> A_1  D_1  S_1  
     e( 11 - 11) =      7.94345  eV     1   --> B_2  D_4  S_4  
     e( 12 - 12) =      8.41160  eV     1   --> A_2  D_2  S_2  
     e( 13 - 13) =      8.62395  eV     1   --> B_1  D_3  S_3  
     e( 14 - 14) =      9.79003  eV     1   --> A_1  D_1  S_1  
     e( 15 - 15) =     11.64744  eV     1   --> B_2  D_4  S_4  
     e( 16 - 16) =     13.95243  eV     1   --> B_1  D_3  S_3  

 **************************************************************************

 **************************************************************************

                    xk=(   0.16667,   0.00000,   0.00000  )

     Band symmetry, C_2v (mm2)  point group:

     e(  1 -  1) =    -20.76812  eV     1   --> A_1  D_1  S_1  
     e(  2 -  2) =     -8.77234  eV     1   --> B_1  D_3  S_3  
     e(  3 -  3) =     -6.48125  eV     1   --> B_2  D_4  S_4  
     e(  4 -  4) =     -5.81678  eV     1   --> A_1  D_1  S_1  
     e(  5 -  5) =      1.83526  eV     1   --> A_1  D_1  S_1  
     e(  6 -  6) =      2.57966  eV     1   --> B_1  D_3  S_3  
     e(  7 -  7) =      2.80330  eV     1   --> A_1  D_1  S_1  
     e(  8 -  8) =      4.80856  eV     1   --> B_1  D_3  S_3  
     e(  9 -  9) =      5.60016  eV     1   --> A_1  D_1  S_1  
     e( 10 - 10) =      6.96239  eV     1   --> A_1  D_1  S_1  
     e( 11 - 11) =      8.13219  eV     1   --> A_2  D_2  S_2  
     e( 12 - 12) =      8.16849  eV     1   --> B_2  D_4  S_4  
     e( 13 - 13) =      8.74670  eV     1   --> B_1  D_3  S_3  
     e( 14 - 14) =      9.91737  eV     1   --> A_1  D_1  S_1  
     e( 15 - 15) =     11.87000  eV     1   --> B_2  D_4  S_4  
     e( 16 - 16) =     14.06123  eV     1   --> B_1  D_3  S_3  

 **************************************************************************

 **************************************************************************

                    xk=(   0.18333,   0.00000,   0.00000  )

     Band symmetry, C_2v (mm2)  point group:

     e(  1 -  1) =    -20.66537  eV     1   --> A_1  D_1  S_1  
     e(  2 -  2) =     -8.65023  eV     1   --> B_1  D_3  S_3  
     e(  3 -  3) =     -6.76731  eV     1   --> B_2  D_4  S_4  
     e(  4 -  4) =     -6.01262  eV     1   --> A_1  D_1  S_1  
     e(  5 -  5) =      1.97757  eV     1   --> A_1  D_1  S_1  
     e(  6 -  6) =      2.72222  eV     1   --> B_1  D_3  S_3  
     e(  7 -  7) =      2.94561  eV     1   --> A_1  D_1  S_1  
     e(  8 -  8) =      4.94865  eV     1   --> B_1  D_3  S_3  
     e(  9 -  9) =      5.73964  eV     1   --> A_1  D_1  S_1  
     e( 10 - 10) =      7.04975  eV     1   --> A_1  D_1  S_1  
     e( 11 - 11) =      7.83391  eV     1   --> A_2  D_2  S_2  
     e( 12 - 12) =      8.38634  eV     1   --> B_2  D_4  S_4  
     e( 13 - 13) =      8.88192  eV     1   --> B_1  D_3  S_3  
     e( 14 - 14) =     10.05779  eV     1   --> A_1  D_1  S_1  
     e( 15 - 15) =     12.12678  eV     1   --> B_2  D_4  S_4  
     e( 16 - 16) =     14.17887  eV     1   --> B_1  D_3  S_3  

 **************************************************************************

 **************************************************************************

                    xk=(   0.20000,   0.00000,   0.00000  )

     Band symmetry, C_2v (mm2)  point group:

     e(  1 -  1) =    -20.55298  eV     1   --> A_1  D_1  S_1  
     e(  2 -  2) =     -8.51690  eV     1   --> B_1  D_3  S_3  
     e(  3 -  3) =     -7.06215  eV     1   --> B_2  D_4  S_4  
     e(  4 -  4) =     -6.22091  eV     1   --> A_1  D_1  S_1  
     e(  5 -  5) =      2.13341  eV     1   --> A_1  D_1  S_1  
     e(  6 -  6) =      2.87829  eV     1   --> B_1  D_3  S_3  
     e(  7 -  7) =      3.10147  eV     1   --> A_1  D_1  S_1  
     e(  8 -  8) =      5.10190  eV     1   --> B_1  D_3  S_3  
     e(  9 -  9) =      5.89242  eV     1   --> A_1  D_1  S_1  
     e( 10 - 10) =      7.14766  eV     1   --> A_1  D_1  S_1  
     e( 11 - 11) =      7.51910  eV     1   --> A_2  D_2  S_2  
     e( 12 - 12) =      8.59329  eV     1   --> B_2  D_4  S_4  
     e( 13 - 13) =      9.02942  eV     1   --> B_1  D_3  S_3  
     e( 14 - 14) =     10.21123  eV     1   --> A_1  D_1  S_1  
     e( 15 - 15) =     12.41780  eV     1   --> B_2  D_4  S_4  
     e( 16 - 16) =     14.30394  eV     1   --> B_1  D_3  S_3  

 **************************************************************************

 **************************************************************************

                    xk=(   0.21667,   0.00000,   0.00000  )

     Band symmetry, C_2v (mm2)  point group:

     e(  1 -  1) =    -20.43100  eV     1   --> A_1  D_1  S_1  
     e(  2 -  2) =     -8.37248  eV     1   --> B_1  D_3  S_3  
     e(  3 -  3) =     -7.36341  eV     1   --> B_2  D_4  S_4  
     e(  4 -  4) =     -6.44024  eV     1   --> A_1  D_1  S_1  
     e(  5 -  5) =      2.30278  eV     1   --> A_1  D_1  S_1  
     e(  6 -  6) =      3.04782  eV     1   --> B_1  D_3  S_3  
     e(  7 -  7) =      3.27090  eV     1   --> A_1  D_1  S_1  
     e(  8 -  8) =      5.26824  eV     1   --> B_1  D_3  S_3  
     e(  9 -  9) =      6.05850  eV     1   --> A_1  D_1  S_1  
     e( 10 - 10) =      7.19016  eV     1   --> A_2  D_2  S_2  
     e( 11 - 11) =      7.25653  eV     1   --> A_1  D_1  S_1  
     e( 12 - 12) =      8.78732  eV     1   --> B_2  D_4  S_4  
     e( 13 - 13) =      9.18897  eV     1   --> B_1  D_3  S_3  
     e( 14 - 14) =     10.37764  eV     1   --> A_1  D_1  S_1  
     e( 15 - 15) =     12.74186  eV     1   --> B_2  D_4  S_4  
     e( 16 - 16) =     14.43437  eV     1   --> B_1  D_3  S_3  

 **************************************************************************

 **************************************************************************

                    xk=(   0.23333,   0.00000,   0.00000  )

     Band symmetry, C_2v (mm2)  point group:

     e(  1 -  1) =    -20.29947  eV     1   --> A_1  D_1  S_1  
     e(  2 -  2) =     -8.21713  eV     1   --> B_1  D_3  S_3  
     e(  3 -  3) =     -7.66914  eV     1   --> B_2  D_4  S_4  
     e(  4 -  4) =     -6.66928  eV     1   --> A_1  D_1  S_1  
     e(  5 -  5) =      2.48566  eV     1   --> A_1  D_1  S_1  
     e(  6 -  6) =      3.23080  eV     1   --> B_1  D_3  S_3  
     e(  7 -  7) =      3.45387  eV     1   --> A_1  D_1  S_1  
     e(  8 -  8) =      5.44758  eV     1   --> B_1  D_3  S_3  
     e(  9 -  9) =      6.23783  eV     1   --> A_1  D_1  S_1  
     e( 10 - 10) =      6.84928  eV     1   --> A_2  D_2  S_2  
     e( 11 - 11) =      7.37652  eV     1   --> A_1  D_1  S_1  
     e( 12 - 12) =      8.96783  eV     1   --> B_2  D_4  S_4  
     e( 13 - 13) =      9.36026  eV     1   --> B_1  D_3  S_3  
     e( 14 - 14) =     10.55697  eV     1   --> A_1  D_1  S_1  
     e( 15 - 15) =     13.09634  eV     1   --> B_2  D_4  S_4  
     e( 16 - 16) =     14.56705  eV     1   --> B_1  D_3  S_3  

 **************************************************************************

 **************************************************************************

                    xk=(   0.25000,   0.00000,   0.00000  )

     Band symmetry, C_2v (mm2)  point group:

     e(  1 -  1) =    -20.15845  eV     1   --> A_1  D_1  S_1  
     e(  2 -  2) =     -8.05099  eV     1   --> B_1  D_3  S_3  
     e(  3 -  3) =     -7.97762  eV     1   --> B_2  D_4  S_4  
     e(  4 -  4) =     -6.90673  eV     1   --> A_1  D_1  S_1  
     e(  5 -  5) =      2.68204  eV     1   --> A_1  D_1  S_1  
     e(  6 -  6) =      3.42719  eV     1   --> B_1  D_3  S_3  
     e(  7 -  7) =      3.65038  eV     1   --> A_1  D_1  S_1  
     e(  8 -  8) =      5.63981  eV     1   --> B_1  D_3  S_3  
     e(  9 -  9) =      6.43037  eV     1   --> A_1  D_1  S_1  
     e( 10 - 10) =      6.49856  eV     1   --> A_2  D_2  S_2  
     e( 11 - 11) =      7.50756  eV     1   --> A_1  D_1  S_1  
     e( 12 - 12) =      9.13530  eV     1   --> B_2  D_4  S_4  
     e( 13 - 13) =      9.54289  eV     1   --> B_1  D_3  S_3  
     e( 14 - 14) =     10.74917  eV     1   --> A_1  D_1  S_1  
     e( 15 - 15) =     13.47753  eV     1   --> B_2  D_4  S_4  
     e( 16 - 16) =     14.69711  eV     1   --> B_1  D_3  S_3  

 **************************************************************************

 **************************************************************************

                    xk=(   0.26667,   0.00000,   0.00000  )

     Band symmetry, C_2v (mm2)  point group:

     e(  1 -  1) =    -20.00798  eV     1   --> A_1  D_1  S_1  
     e(  2 -  2) =     -8.28737  eV     1   --> B_2  D_4  S_4  
     e(  3 -  3) =     -7.87424  eV     1   --> B_1  D_3  S_3  
     e(  4 -  4) =     -7.15125  eV     1   --> A_1  D_1  S_1  
     e(  5 -  5) =      2.89191  eV     1   --> A_1  D_1  S_1  
     e(  6 -  6) =      3.63693  eV     1   --> B_1  D_3  S_3  
     e(  7 -  7) =      3.86043  eV     1   --> A_1  D_1  S_1  
     e(  8 -  8) =      5.84482  eV     1   --> B_1  D_3  S_3  
     e(  9 -  9) =      6.13998  eV     1   --> A_2  D_2  S_2  
     e( 10 - 10) =      6.63607  eV     1   --> A_1  D_1  S_1  
     e( 11 - 11) =      7.64972  eV     1   --> A_1  D_1  S_1  
     e( 12 - 12) =      9.29100  eV     1   --> B_2  D_4  S_4  
     e( 13 - 13) =      9.73630  eV     1   --> B_1  D_3  S_3  
     e( 14 - 14) =     10.95420  eV     1   --> A_1  D_1  S_1  
     e( 15 - 15) =     13.88070  eV     1   --> B_2  D_4  S_4  
     e( 16 - 16) =     14.81686  eV     1   --> B_1  D_3  S_3  

 **************************************************************************

 **************************************************************************

                    xk=(   0.28333,   0.00000,   0.00000  )

     Band symmetry, C_2v (mm2)  point group:

     e(  1 -  1) =    -19.84817  eV     1   --> A_1  D_1  S_1  
     e(  2 -  2) =     -8.59711  eV     1   --> B_2  D_4  S_4  
     e(  3 -  3) =     -7.68710  eV     1   --> B_1  D_3  S_3  
     e(  4 -  4) =     -7.40164  eV     1   --> A_1  D_1  S_1  
     e(  5 -  5) =      3.11522  eV     1   --> A_1  D_1  S_1  
     e(  6 -  6) =      3.85997  eV     1   --> B_1  D_3  S_3  
     e(  7 -  7) =      4.08400  eV     1   --> A_1  D_1  S_1  
     e(  8 -  8) =      5.77540  eV     1   --> A_2  D_2  S_2  
     e(  9 -  9) =      6.06244  eV     1   --> B_1  D_3  S_3  
     e( 10 - 10) =      6.85482  eV     1   --> A_1  D_1  S_1  
     e( 11 - 11) =      7.80291  eV     1   --> A_1  D_1  S_1  
     e( 12 - 12) =      9.43654  eV     1   --> B_2  D_4  S_4  
     e( 13 - 13) =      9.93977  eV     1   --> B_1  D_3  S_3  
     e( 14 - 14) =     11.17198  eV     1   --> A_1  D_1  S_1  
     e( 15 - 15) =     14.30074  eV     1   --> B_2  D_4  S_4  
     e( 16 - 16) =     14.91414  eV     1   --> B_1  D_3  S_3  

 **************************************************************************

 **************************************************************************

                    xk=(   0.30000,   0.00000,   0.00000  )

     Band symmetry, C_2v (mm2)  point group:

     e(  1 -  1) =    -19.67908  eV     1   --> A_1  D_1  S_1  
     e(  2 -  2) =     -8.90572  eV     1   --> B_2  D_4  S_4  
     e(  3 -  3) =     -7.65665  eV     1   --> A_1  D_1  S_1  
     e(  4 -  4) =     -7.48980  eV     1   --> B_1  D_3  S_3  
     e(  5 -  5) =      3.35197  eV     1   --> A_1  D_1  S_1  
     e(  6 -  6) =      4.09624  eV     1   --> B_1  D_3  S_3  
     e(  7 -  7) =      4.32107  eV     1   --> A_1  D_1  S_1  
     e(  8 -  8) =      5.40646  eV     1   --> A_2  D_2  S_2  
     e(  9 -  9) =      6.29247  eV     1   --> B_1  D_3  S_3  
     e( 10 - 10) =      7.08651  eV     1   --> A_1  D_1  S_1  
     e( 11 - 11) =      7.96719  eV     1   --> A_1  D_1  S_1  
     e( 12 - 12) =      9.57362  eV     1   --> B_2  D_4  S_4  
     e( 13 - 13) =     10.15225  eV     1   --> B_1  D_3  S_3  
     e( 14 - 14) =     11.40243  eV     1   --> A_1  D_1  S_1  
     e( 15 - 15) =     14.73210  eV     1   --> B_2  D_4  S_4  
     e( 16 - 16) =     14.97088  eV     1   --> B_1  D_3  S_3  

 **************************************************************************

 **************************************************************************

                    xk=(   0.31667,   0.00000,   0.00000  )

     Band symmetry, C_2v (mm2)  point group:

     e(  1 -  1) =    -19.50080  eV     1   --> A_1  D_1  S_1  
     e(  2 -  2) =     -9.21224  eV     1   --> B_2  D_4  S_4  
     e(  3 -  3) =     -7.91517  eV     1   --> A_1  D_1  S_1  
     e(  4 -  4) =     -7.28260  eV     1   --> B_1  D_3  S_3  
     e(  5 -  5) =      3.60212  eV     1   --> A_1  D_1  S_1  
     e(  6 -  6) =      4.34564  eV     1   --> B_1  D_3  S_3  
     e(  7 -  7) =      4.57163  eV     1   --> A_1  D_1  S_1  
     e(  8 -  8) =      5.03485  eV     1   --> A_2  D_2  S_2  
     e(  9 -  9) =      6.53463  eV     1   --> B_1  D_3  S_3  
     e( 10 - 10) =      7.33096  eV     1   --> A_1  D_1  S_1  
     e( 11 - 11) =      8.14245  eV     1   --> A_1  D_1  S_1  
     e( 12 - 12) =      9.70385  eV     1   --> B_2  D_4  S_4  
     e( 13 - 13) =     10.37228  eV     1   --> B_1  D_3  S_3  
     e( 14 - 14) =     11.64547  eV     1   --> A_1  D_1  S_1  
     e( 15 - 15) =     14.96505  eV     1   --> B_1  D_3  S_3  
     e( 16 - 16) =     15.16798  eV     1   --> B_2  D_4  S_4  

 **************************************************************************

 **************************************************************************

                    xk=(   0.33333,   0.00000,   0.00000  )

     Band symmetry, C_2v (mm2)  point group:

     e(  1 -  1) =    -19.31342  eV     1   --> A_1  D_1  S_1  
     e(  2 -  2) =     -9.51585  eV     1   --> B_2  D_4  S_4  
     e(  3 -  3) =     -8.17610  eV     1   --> A_1  D_1  S_1  
     e(  4 -  4) =     -7.06579  eV     1   --> B_1  D_3  S_3  
     e(  5 -  5) =      3.86564  eV     1   --> A_1  D_1  S_1  
     e(  6 -  6) =      4.60807  eV     1   --> B_1  D_3  S_3  
     e(  7 -  7) =      4.66198  eV     1   --> A_2  D_2  S_2  
     e(  8 -  8) =      4.83566  eV     1   --> A_1  D_1  S_1  
     e(  9 -  9) =      6.78860  eV     1   --> B_1  D_3  S_3  
     e( 10 - 10) =      7.58791  eV     1   --> A_1  D_1  S_1  
     e( 11 - 11) =      8.32842  eV     1   --> A_1  D_1  S_1  
     e( 12 - 12) =      9.82861  eV     1   --> B_2  D_4  S_4  
     e( 13 - 13) =     10.59768  eV     1   --> B_1  D_3  S_3  
     e( 14 - 14) =     11.90097  eV     1   --> A_1  D_1  S_1  
     e( 15 - 15) =     14.88107  eV     1   --> B_1  D_3  S_3  
     e( 16 - 16) =     15.60083  eV     1   --> B_2  D_4  S_4  

 **************************************************************************

 **************************************************************************

                    xk=(   0.35000,   0.00000,   0.00000  )

     Band symmetry, C_2v (mm2)  point group:

     e(  1 -  1) =    -19.11709  eV     1   --> A_1  D_1  S_1  
     e(  2 -  2) =     -9.81588  eV     1   --> B_2  D_4  S_4  
     e(  3 -  3) =     -8.43846  eV     1   --> A_1  D_1  S_1  
     e(  4 -  4) =     -6.83971  eV     1   --> B_1  D_3  S_3  
     e(  5 -  5) =      4.14248  eV     1   --> A_1  D_1  S_1  
     e(  6 -  6) =      4.28910  eV     1   --> A_2  D_2  S_2  
     e(  7 -  7) =      4.88336  eV     1   --> B_1  D_3  S_3  
     e(  8 -  8) =      5.11313  eV     1   --> A_1  D_1  S_1  
     e(  9 -  9) =      7.05390  eV     1   --> B_1  D_3  S_3  
     e( 10 - 10) =      7.85698  eV     1   --> A_1  D_1  S_1  
     e( 11 - 11) =      8.52499  eV     1   --> A_1  D_1  S_1  
     e( 12 - 12) =      9.94897  eV     1   --> B_2  D_4  S_4  
     e( 13 - 13) =     10.82516  eV     1   --> B_1  D_3  S_3  
     e( 14 - 14) =     12.16879  eV     1   --> A_1  D_1  S_1  
     e( 15 - 15) =     14.72407  eV     1   --> B_1  D_3  S_3  
     e( 16 - 16) =     16.02047  eV     1   --> B_2  D_4  S_4  

 **************************************************************************

 **************************************************************************

                    xk=(   0.36667,   0.00000,   0.00000  )

     Band symmetry, C_2v (mm2)  point group:

     e(  1 -  1) =    -18.91192  eV     1   --> A_1  D_1  S_1  
     e(  2 -  2) =    -10.11168  eV     1   --> B_2  D_4  S_4  
     e(  3 -  3) =     -8.70125  eV     1   --> A_1  D_1  S_1  
     e(  4 -  4) =     -6.60472  eV     1   --> B_1  D_3  S_3  
     e(  5 -  5) =      3.91744  eV     1   --> A_2  D_2  S_2  
     e(  6 -  6) =      4.43259  eV     1   --> A_1  D_1  S_1  
     e(  7 -  7) =      5.17132  eV     1   --> B_1  D_3  S_3  
     e(  8 -  8) =      5.40401  eV     1   --> A_1  D_1  S_1  
     e(  9 -  9) =      7.32991  eV     1   --> B_1  D_3  S_3  
     e( 10 - 10) =      8.13754  eV     1   --> A_1  D_1  S_1  
     e( 11 - 11) =      8.73231  eV     1   --> A_1  D_1  S_1  
     e( 12 - 12) =     10.06587  eV     1   --> B_2  D_4  S_4  
     e( 13 - 13) =     11.04959  eV     1   --> B_1  D_3  S_3  
     e( 14 - 14) =     12.44872  eV     1   --> A_1  D_1  S_1  
     e( 15 - 15) =     14.52028  eV     1   --> B_1  D_3  S_3  
     e( 16 - 16) =     16.41128  eV     1   --> B_2  D_4  S_4  

 **************************************************************************

 **************************************************************************

                    xk=(   0.38333,   0.00000,   0.00000  )

     Band symmetry, C_2v (mm2)  point group:

     e(  1 -  1) =    -18.69805  eV     1   --> A_1  D_1  S_1  
     e(  2 -  2) =    -10.40272  eV     1   --> B_2  D_4  S_4  
     e(  3 -  3) =     -8.96351  eV     1   --> A_1  D_1  S_1  
     e(  4 -  4) =     -6.36125  eV     1   --> B_1  D_3  S_3  
     e(  5 -  5) =      3.54806  eV     1   --> A_2  D_2  S_2  
     e(  6 -  6) =      4.73590  eV     1   --> A_1  D_1  S_1  
     e(  7 -  7) =      5.47168  eV     1   --> B_1  D_3  S_3  
     e(  8 -  8) =      5.70827  eV     1   --> A_1  D_1  S_1  
     e(  9 -  9) =      7.61572  eV     1   --> B_1  D_3  S_3  
     e( 10 - 10) =      8.42862  eV     1   --> A_1  D_1  S_1  
     e( 11 - 11) =      8.95076  eV     1   --> A_1  D_1  S_1  
     e( 12 - 12) =     10.18005  eV     1   --> B_2  D_4  S_4  
     e( 13 - 13) =     11.26289  eV     1   --> B_1  D_3  S_3  
     e( 14 - 14) =     12.74050  eV     1   --> A_1  D_1  S_1  
     e( 15 - 15) =     14.30377  eV     1   --> B_1  D_3  S_3  
     e( 16 - 16) =     16.74785  eV     1   --> B_2  D_4  S_4  

 **************************************************************************

 **************************************************************************

                    xk=(   0.40000,   0.00000,   0.00000  )

     Band symmetry, C_2v (mm2)  point group:

     e(  1 -  1) =    -18.47568  eV     1   --> A_1  D_1  S_1  
     e(  2 -  2) =    -10.68854  eV     1   --> B_2  D_4  S_4  
     e(  3 -  3) =     -9.22439  eV     1   --> A_1  D_1  S_1  
     e(  4 -  4) =     -6.10977  eV     1   --> B_1  D_3  S_3  
     e(  5 -  5) =      3.18192  eV     1   --> A_2  D_2  S_2  
     e(  6 -  6) =      5.05234  eV     1   --> A_1  D_1  S_1  
     e(  7 -  7) =      5.78407  eV     1   --> B_1  D_3  S_3  
     e(  8 -  8) =      6.02585  eV     1   --> A_1  D_1  S_1  
     e(  9 -  9) =      7.91008  eV     1   --> B_1  D_3  S_3  
     e( 10 - 10) =      8.72847  eV     1   --> A_1  D_1  S_1  
     e( 11 - 11) =      9.18105  eV     1   --> A_1  D_1  S_1  
     e( 12 - 12) =     10.29187  eV     1   --> B_2  D_4  S_4  
     e( 13 - 13) =     11.45254  eV     1   --> B_1  D_3  S_3  
     e( 14 - 14) =     13.04378  eV     1   --> A_1  D_1  S_1  
     e( 15 - 15) =     14.10823  eV     1   --> B_1  D_3  S_3  
     e( 16 - 16) =     16.98544  eV     1   --> B_2  D_4  S_4  

 **************************************************************************

 **************************************************************************

                    xk=(   0.41667,   0.00000,   0.00000  )

     Band symmetry, C_2v (mm2)  point group:

     e(  1 -  1) =    -18.24499  eV     1   --> A_1  D_1  S_1  
     e(  2 -  2) =    -10.96875  eV     1   --> B_2  D_4  S_4  
     e(  3 -  3) =     -9.48307  eV     1   --> A_1  D_1  S_1  
     e(  4 -  4) =     -5.85081  eV     1   --> B_1  D_3  S_3  
     e(  5 -  5) =      2.81987  eV     1   --> A_2  D_2  S_2  
     e(  6 -  6) =      5.38180  eV     1   --> A_1  D_1  S_1  
     e(  7 -  7) =      6.10797  eV     1   --> B_1  D_3  S_3  
     e(  8 -  8) =      6.35671  eV     1   --> A_1  D_1  S_1  
     e(  9 -  9) =      8.21109  eV     1   --> B_1  D_3  S_3  
     e( 10 - 10) =      9.03400  eV     1   --> A_1  D_1  S_1  
     e( 11 - 11) =      9.42535  eV     1   --> A_1  D_1  S_1  
     e( 12 - 12) =     10.40162  eV     1   --> B_2  D_4  S_4  
     e( 13 - 13) =     11.60090  eV     1   --> B_1  D_3  S_3  
     e( 14 - 14) =     13.35808  eV     1   --> A_1  D_1  S_1  
     e( 15 - 15) =     13.96651  eV     1   --> B_1  D_3  S_3  
     e( 16 - 16) =     17.06010  eV     1   --> B_2  D_4  S_4  

 **************************************************************************

 **************************************************************************

                    xk=(   0.43333,   0.00000,   0.00000  )

     Band symmetry, C_2v (mm2)  point group:

     e(  1 -  1) =    -18.00626  eV     1   --> A_1  D_1  S_1  
     e(  2 -  2) =    -11.24300  eV     1   --> B_2  D_4  S_4  
     e(  3 -  3) =     -9.73875  eV     1   --> A_1  D_1  S_1  
     e(  4 -  4) =     -5.58500  eV     1   --> B_1  D_3  S_3  
     e(  5 -  5) =      2.46270  eV     1   --> A_2  D_2  S_2  
     e(  6 -  6) =      5.72417  eV     1   --> A_1  D_1  S_1  
     e(  7 -  7) =      6.44259  eV     1   --> B_1  D_3  S_3  
     e(  8 -  8) =      6.70076  eV     1   --> A_1  D_1  S_1  
     e(  9 -  9) =      8.51584  eV     1   --> B_1  D_3  S_3  
     e( 10 - 10) =      9.33975  eV     1   --> A_1  D_1  S_1  
     e( 11 - 11) =      9.68773  eV     1   --> A_1  D_1  S_1  
     e( 12 - 12) =     10.50933  eV     1   --> B_2  D_4  S_4  
     e( 13 - 13) =     11.68949  eV     1   --> B_1  D_3  S_3  
     e( 14 - 14) =     13.68268  eV     1   --> A_1  D_1  S_1  
     e( 15 - 15) =     13.90879  eV     1   --> B_1  D_3  S_3  
     e( 16 - 16) =     16.94007  eV     1   --> B_2  D_4  S_4  

 **************************************************************************

 **************************************************************************

                    xk=(   0.45000,   0.00000,   0.00000  )

     Band symmetry, C_2v (mm2)  point group:

     e(  1 -  1) =    -17.75973  eV     1   --> A_1  D_1  S_1  
     e(  2 -  2) =    -11.51096  eV     1   --> B_2  D_4  S_4  
     e(  3 -  3) =     -9.99060  eV     1   --> A_1  D_1  S_1  
     e(  4 -  4) =     -5.31297  eV     1   --> B_1  D_3  S_3  
     e(  5 -  5) =      2.11121  eV     1   --> A_2  D_2  S_2  
     e(  6 -  6) =      6.07929  eV     1   --> A_1  D_1  S_1  
     e(  7 -  7) =      6.78677  eV     1   --> B_1  D_3  S_3  
     e(  8 -  8) =      7.05793  eV     1   --> A_1  D_1  S_1  
     e(  9 -  9) =      8.81980  eV     1   --> B_1  D_3  S_3  
     e( 10 - 10) =      9.63807  eV     1   --> A_1  D_1  S_1  
     e( 11 - 11) =      9.97456  eV     1   --> A_1  D_1  S_1  
     e( 12 - 12) =     10.61499  eV     1   --> B_2  D_4  S_4  
     e( 13 - 13) =     11.71161  eV     1   --> B_1  D_3  S_3  
     e( 14 - 14) =     13.95219  eV     1   --> B_1  D_3  S_3  
     e( 15 - 15) =     14.01658  eV     1   --> A_1  D_1  S_1  
     e( 16 - 16) =     16.67782  eV     1   --> B_2  D_4  S_4  

 **************************************************************************

 **************************************************************************

                    xk=(   0.46667,   0.00000,   0.00000  )

     Band symmetry, C_2v (mm2)  point group:

     e(  1 -  1) =    -17.50580  eV     1   --> A_1  D_1  S_1  
     e(  2 -  2) =    -11.77239  eV     1   --> B_2  D_4  S_4  
     e(  3 -  3) =    -10.23790  eV     1   --> A_1  D_1  S_1  
     e(  4 -  4) =     -5.03555  eV     1   --> B_1  D_3  S_3  
     e(  5 -  5) =      1.76590  eV     1   --> A_2  D_2  S_2  
     e(  6 -  6) =      6.44693  eV     1   --> A_1  D_1  S_1  
     e(  7 -  7) =      7.13861  eV     1   --> B_1  D_3  S_3  
     e(  8 -  8) =      7.42808  eV     1   --> A_1  D_1  S_1  
     e(  9 -  9) =      9.11569  eV     1   --> B_1  D_3  S_3  
     e( 10 - 10) =      9.92223  eV     1   --> A_1  D_1  S_1  
     e( 11 - 11) =     10.29035  eV     1   --> A_1  D_1  S_1  
     e( 12 - 12) =     10.71787  eV     1   --> B_2  D_4  S_4  
     e( 13 - 13) =     11.68426  eV     1   --> B_1  D_3  S_3  
     e( 14 - 14) =     14.09113  eV     1   --> B_1  D_3  S_3  
     e( 15 - 15) =     14.35812  eV     1   --> A_1  D_1  S_1  
     e( 16 - 16) =     16.34724  eV     1   --> B_2  D_4  S_4  

 **************************************************************************

 **************************************************************************

                    xk=(   0.48333,   0.00000,   0.00000  )

     Band symmetry, C_2v (mm2)  point group:

     e(  1 -  1) =    -17.24485  eV     1   --> A_1  D_1  S_1  
     e(  2 -  2) =    -12.02702  eV     1   --> B_2  D_4  S_4  
     e(  3 -  3) =    -10.47983  eV     1   --> A_1  D_1  S_1  
     e(  4 -  4) =     -4.75358  eV     1   --> B_1  D_3  S_3  
     e(  5 -  5) =      1.42752  eV     1   --> A_2  D_2  S_2  
     e(  6 -  6) =      6.82684  eV     1   --> A_1  D_1  S_1  
     e(  7 -  7) =      7.49497  eV     1   --> B_1  D_3  S_3  
     e(  8 -  8) =      7.81108  eV     1   --> A_1  D_1  S_1  
     e(  9 -  9) =      9.39228  eV     1   --> B_1  D_3  S_3  
     e( 10 - 10) =     10.19105  eV     1   --> A_1  D_1  S_1  
     e( 11 - 11) =     10.63372  eV     1   --> A_1  D_1  S_1  
     e( 12 - 12) =     10.81739  eV     1   --> B_2  D_4  S_4  
     e( 13 - 13) =     11.64440  eV     1   --> B_1  D_3  S_3  
     e( 14 - 14) =     14.30349  eV     1   --> B_1  D_3  S_3  
     e( 15 - 15) =     14.70443  eV     1   --> A_1  D_1  S_1  
     e( 16 - 16) =     15.99180  eV     1   --> B_2  D_4  S_4  

 **************************************************************************

 **************************************************************************

                    xk=(   0.50000,   0.00000,   0.00000  )

     Band symmetry, C_2v (mm2)  point group:

     e(  1 -  1) =    -16.97743  eV     1   --> A_1  D_1  S_1  
     e(  2 -  2) =    -12.27467  eV     1   --> B_2  D_4  S_4  
     e(  3 -  3) =    -10.71558  eV     1   --> A_1  D_1  S_1  
     e(  4 -  4) =     -4.46805  eV     1   --> B_1  D_3  S_3  
     e(  5 -  5) =      1.09649  eV     1   --> A_2  D_2  S_2  
     e(  6 -  6) =      7.21861  eV     1   --> A_1  D_1  S_1  
     e(  7 -  7) =      7.85023  eV     1   --> B_1  D_3  S_3  
     e(  8 -  8) =      8.20670  eV     1   --> A_1  D_1  S_1  
     e(  9 -  9) =      9.63439  eV     1   --> B_1  D_3  S_3  
     e( 10 - 10) =     10.44672  eV     1   --> A_1  D_1  S_1  
     e( 11 - 11) =     10.91257  eV     1   --> B_2  D_4  S_4  
     e( 12 - 12) =     10.99927  eV     1   --> A_1  D_1  S_1  
     e( 13 - 13) =     11.63589  eV     1   --> B_1  D_3  S_3  
     e( 14 - 14) =     14.56336  eV     1   --> B_1  D_3  S_3  
     e( 15 - 15) =     15.04814  eV     1   --> A_1  D_1  S_1  
     e( 16 - 16) =     15.63151  eV     1   --> B_2  D_4  S_4  

 **************************************************************************

 **************************************************************************

                    xk=(   0.51667,   0.00000,   0.00000  )

     Band symmetry, C_2v (mm2)  point group:

     e(  1 -  1) =    -16.70418  eV     1   --> A_1  D_1  S_1  
     e(  2 -  2) =    -12.51516  eV     1   --> B_2  D_4  S_4  
     e(  3 -  3) =    -10.94424  eV     1   --> A_1  D_1  S_1  
     e(  4 -  4) =     -4.18005  eV     1   --> B_1  D_3  S_3  
     e(  5 -  5) =      0.77330  eV     1   --> A_2  D_2  S_2  
     e(  6 -  6) =      7.62174  eV     1   --> A_1  D_1  S_1  
     e(  7 -  7) =      8.19401  eV     1   --> B_1  D_3  S_3  
     e(  8 -  8) =      8.61467  eV     1   --> A_1  D_1  S_1  
     e(  9 -  9) =      9.82961  eV     1   --> B_1  D_3  S_3  
     e( 10 - 10) =     10.69038  eV     1   --> A_1  D_1  S_1  
     e( 11 - 11) =     11.00209  eV     1   --> B_2  D_4  S_4  
     e( 12 - 12) =     11.38171  eV     1   --> A_1  D_1  S_1  
     e( 13 - 13) =     11.69866  eV     1   --> B_1  D_3  S_3  
     e( 14 - 14) =     14.84372  eV     1   --> B_1  D_3  S_3  
     e( 15 - 15) =     15.27583  eV     1   --> B_2  D_4  S_4  
     e( 16 - 16) =     15.29235  eV     1   --> A_1  D_1  S_1  

 **************************************************************************

 **************************************************************************

                    xk=(   0.53333,   0.00000,   0.00000  )

     Band symmetry, C_2v (mm2)  point group:

     e(  1 -  1) =    -16.42597  eV     1   --> A_1  D_1  S_1  
     e(  2 -  2) =    -12.74835  eV     1   --> B_2  D_4  S_4  
     e(  3 -  3) =    -11.16478  eV     1   --> A_1  D_1  S_1  
     e(  4 -  4) =     -3.89081  eV     1   --> B_1  D_3  S_3  
     e(  5 -  5) =      0.45832  eV     1   --> A_2  D_2  S_2  
     e(  6 -  6) =      8.03546  eV     1   --> A_1  D_1  S_1  
     e(  7 -  7) =      8.50685  eV     1   --> B_1  D_3  S_3  
     e(  8 -  8) =      9.03456  eV     1   --> A_1  D_1  S_1  
     e(  9 -  9) =      9.98639  eV     1   --> B_1  D_3  S_3  
     e( 10 - 10) =     10.92022  eV     1   --> A_1  D_1  S_1  
     e( 11 - 11) =     11.08398  eV     1   --> B_2  D_4  S_4  
     e( 12 - 12) =     11.77679  eV     1   --> A_1  D_1  S_1  
     e( 13 - 13) =     11.85476  eV     1   --> B_1  D_3  S_3  
     e( 14 - 14) =     14.92967  eV     1   --> B_2  D_4  S_4  
     e( 15 - 15) =     14.99676  eV     1   --> A_1  D_1  S_1  
     e( 16 - 16) =     15.09737  eV     1   --> B_1  D_3  S_3  

 **************************************************************************

 **************************************************************************

                    xk=(   0.55000,   0.00000,   0.00000  )

     Band symmetry, C_2v (mm2)  point group:

     e(  1 -  1) =    -16.14390  eV     1   --> A_1  D_1  S_1  
     e(  2 -  2) =    -12.97406  eV     1   --> B_2  D_4  S_4  
     e(  3 -  3) =    -11.37594  eV     1   --> A_1  D_1  S_1  
     e(  4 -  4) =     -3.60169  eV     1   --> B_1  D_3  S_3  
     e(  5 -  5) =      0.15204  eV     1   --> A_2  D_2  S_2  
     e(  6 -  6) =      8.45863  eV     1   --> A_1  D_1  S_1  
     e(  7 -  7) =      8.75705  eV     1   --> B_1  D_3  S_3  
     e(  8 -  8) =      9.46577  eV     1   --> A_1  D_1  S_1  
     e(  9 -  9) =     10.14802  eV     1   --> B_1  D_3  S_3  
     e( 10 - 10) =     11.13260  eV     1   --> A_1  D_1  S_1  
     e( 11 - 11) =     11.15600  eV     1   --> B_2  D_4  S_4  
     e( 12 - 12) =     12.09918  eV     1   --> B_1  D_3  S_3  
     e( 13 - 13) =     12.18049  eV     1   --> A_1  D_1  S_1  
     e( 14 - 14) =     14.59585  eV     1   --> B_2  D_4  S_4  
     e( 15 - 15) =     14.65922  eV     1   --> A_1  D_1  S_1  
     e( 16 - 16) =     14.99205  eV     1   --> A_2  D_2  S_2  

 **************************************************************************

 **************************************************************************

                    xk=(   0.56667,   0.00000,   0.00000  )

     Band symmetry, C_2v (mm2)  point group:

     e(  1 -  1) =    -15.85955  eV     1   --> A_1  D_1  S_1  
     e(  2 -  2) =    -13.19219  eV     1   --> B_2  D_4  S_4  
     e(  3 -  3) =    -11.57611  eV     1   --> A_1  D_1  S_1  
     e(  4 -  4) =     -3.31423  eV     1   --> B_1  D_3  S_3  
     e(  5 -  5) =     -0.14524  eV     1   --> A_2  D_2  S_2  
     e(  6 -  6) =      8.88948  eV     1   --> A_1  D_1  S_1  
     e(  7 -  7) =      8.91304  eV     1   --> B_1  D_3  S_3  
     e(  8 -  8) =      9.90728  eV     1   --> A_1  D_1  S_1  
     e(  9 -  9) =     10.37119  eV     1   --> B_1  D_3  S_3  
     e( 10 - 10) =     11.21511  eV     1   --> B_2  D_4  S_4  
     e( 11 - 11) =     11.32170  eV     1   --> A_1  D_1  S_1  
     e( 12 - 12) =     12.40978  eV     1   --> B_1  D_3  S_3  
     e( 13 - 13) =     12.58735  eV     1   --> A_1  D_1  S_1  
     e( 14 - 14) =     14.27608  eV     1   --> B_2  D_4  S_4  
     e( 15 - 15) =     14.33796  eV     1   --> A_1  D_1  S_1  
     e( 16 - 16) =     14.63474  eV     1   --> A_2  D_2  S_2  

 **************************************************************************

 **************************************************************************

                    xk=(   0.58333,   0.00000,   0.00000  )

     Band symmetry, C_2v (mm2)  point group:

     e(  1 -  1) =    -15.57510  eV     1   --> A_1  D_1  S_1  
     e(  2 -  2) =    -13.40264  eV     1   --> B_2  D_4  S_4  
     e(  3 -  3) =    -11.76314  eV     1   --> A_1  D_1  S_1  
     e(  4 -  4) =     -3.03005  eV     1   --> B_1  D_3  S_3  
     e(  5 -  5) =     -0.43320  eV     1   --> A_2  D_2  S_2  
     e(  6 -  6) =      8.97501  eV     1   --> B_1  D_3  S_3  
     e(  7 -  7) =      9.32509  eV     1   --> A_1  D_1  S_1  
     e(  8 -  8) =     10.35732  eV     1   --> A_1  D_1  S_1  
     e(  9 -  9) =     10.67930  eV     1   --> B_1  D_3  S_3  
     e( 10 - 10) =     11.25768  eV     1   --> B_2  D_4  S_4  
     e( 11 - 11) =     11.48036  eV     1   --> A_1  D_1  S_1  
     e( 12 - 12) =     12.76190  eV     1   --> B_1  D_3  S_3  
     e( 13 - 13) =     12.98719  eV     1   --> A_1  D_1  S_1  
     e( 14 - 14) =     13.97134  eV     1   --> B_2  D_4  S_4  
     e( 15 - 15) =     14.03854  eV     1   --> A_1  D_1  S_1  
     e( 16 - 16) =     14.29045  eV     1   --> A_2  D_2  S_2  

 **************************************************************************

 **************************************************************************

                    xk=(   0.60000,   0.00000,   0.00000  )

     Band symmetry, C_2v (mm2)  point group:

     e(  1 -  1) =    -15.29371  eV     1   --> A_1  D_1  S_1  
     e(  2 -  2) =    -13.60529  eV     1   --> B_2  D_4  S_4  
     e(  3 -  3) =    -11.93392  eV     1   --> A_1  D_1  S_1  
     e(  4 -  4) =     -2.75094  eV     1   --> B_1  D_3  S_3  
     e(  5 -  5) =     -0.71155  eV     1   --> A_2  D_2  S_2  
     e(  6 -  6) =      8.97526  eV     1   --> B_1  D_3  S_3  
     e(  7 -  7) =      9.76044  eV     1   --> A_1  D_1  S_1  
     e(  8 -  8) =     10.81199  eV     1   --> A_1  D_1  S_1  
     e(  9 -  9) =     11.05655  eV     1   --> B_1  D_3  S_3  
     e( 10 - 10) =     11.27983  eV     1   --> B_2  D_4  S_4  
     e( 11 - 11) =     11.60268  eV     1   --> A_1  D_1  S_1  
     e( 12 - 12) =     13.12937  eV     1   --> B_1  D_3  S_3  
     e( 13 - 13) =     13.34963  eV     1   --> A_1  D_1  S_1  
     e( 14 - 14) =     13.68202  eV     1   --> B_2  D_4  S_4  
     e( 15 - 15) =     13.77557  eV     1   --> A_1  D_1  S_1  
     e( 16 - 16) =     13.95927  eV     1   --> A_2  D_2  S_2  

 **************************************************************************

 **************************************************************************

                    xk=(   0.61667,   0.00000,   0.00000  )

     Band symmetry, C_2v (mm2)  point group:

     e(  1 -  1) =    -15.02014  eV     1   --> A_1  D_1  S_1  
     e(  2 -  2) =    -13.80008  eV     1   --> B_2  D_4  S_4  
     e(  3 -  3) =    -12.08386  eV     1   --> A_1  D_1  S_1  
     e(  4 -  4) =     -2.47882  eV     1   --> B_1  D_3  S_3  
     e(  5 -  5) =     -0.98004  eV     1   --> A_2  D_2  S_2  
     e(  6 -  6) =      8.94745  eV     1   --> B_1  D_3  S_3  
     e(  7 -  7) =     10.18617  eV     1   --> A_1  D_1  S_1  
     e(  8 -  8) =     11.25730  eV     1   --> A_1  D_1  S_1  
     e(  9 -  9) =     11.27748  eV     1   --> B_2  D_4  S_4  
     e( 10 - 10) =     11.47889  eV     1   --> B_1  D_3  S_3  
     e( 11 - 11) =     11.69327  eV     1   --> A_1  D_1  S_1  
     e( 12 - 12) =     13.40776  eV     1   --> B_2  D_4  S_4  
     e( 13 - 13) =     13.42806  eV     1   --> A_1  D_1  S_1  
     e( 14 - 14) =     13.45860  eV     1   --> B_1  D_3  S_3  
     e( 15 - 15) =     13.64128  eV     1   --> A_2  D_2  S_2  
     e( 16 - 16) =     13.75647  eV     1   --> A_1  D_1  S_1  

 **************************************************************************

 **************************************************************************

                    xk=(   0.63333,   0.00000,   0.00000  )

     Band symmetry, C_2v (mm2)  point group:

     e(  1 -  1) =    -14.76163  eV     1   --> A_1  D_1  S_1  
     e(  2 -  2) =    -13.98695  eV     1   --> B_2  D_4  S_4  
     e(  3 -  3) =    -12.20597  eV     1   --> A_1  D_1  S_1  
     e(  4 -  4) =     -2.21565  eV     1   --> B_1  D_3  S_3  
     e(  5 -  5) =     -1.23844  eV     1   --> A_2  D_2  S_2  
     e(  6 -  6) =      8.91401  eV     1   --> B_1  D_3  S_3  
     e(  7 -  7) =     10.58354  eV     1   --> A_1  D_1  S_1  
     e(  8 -  8) =     11.24783  eV     1   --> B_2  D_4  S_4  
     e(  9 -  9) =     11.57906  eV     1   --> A_1  D_1  S_1  
     e( 10 - 10) =     11.86225  eV     1   --> A_1  D_1  S_1  
     e( 11 - 11) =     11.92744  eV     1   --> B_1  D_3  S_3  
     e( 12 - 12) =     13.14761  eV     1   --> B_2  D_4  S_4  
     e( 13 - 13) =     13.21167  eV     1   --> A_1  D_1  S_1  
     e( 14 - 14) =     13.33654  eV     1   --> A_2  D_2  S_2  
     e( 15 - 15) =     13.58250  eV     1   --> B_1  D_3  S_3  
     e( 16 - 16) =     13.92275  eV     1   --> A_1  D_1  S_1  

 **************************************************************************

 **************************************************************************

                    xk=(   0.65000,   0.00000,   0.00000  )

     Band symmetry, C_2v (mm2)  point group:

     e(  1 -  1) =    -14.52893  eV     1   --> A_1  D_1  S_1  
     e(  2 -  2) =    -14.16581  eV     1   --> B_2  D_4  S_4  
     e(  3 -  3) =    -12.28983  eV     1   --> A_1  D_1  S_1  
     e(  4 -  4) =     -1.96343  eV     1   --> B_1  D_3  S_3  
     e(  5 -  5) =     -1.48653  eV     1   --> A_2  D_2  S_2  
     e(  6 -  6) =      8.88839  eV     1   --> B_1  D_3  S_3  
     e(  7 -  7) =     10.91310  eV     1   --> A_1  D_1  S_1  
     e(  8 -  8) =     11.18946  eV     1   --> B_2  D_4  S_4  
     e(  9 -  9) =     11.63114  eV     1   --> A_1  D_1  S_1  
     e( 10 - 10) =     12.26218  eV     1   --> A_1  D_1  S_1  
     e( 11 - 11) =     12.38121  eV     1   --> B_1  D_3  S_3  
     e( 12 - 12) =     12.90008  eV     1   --> B_2  D_4  S_4  
     e( 13 - 13) =     12.98978  eV     1   --> A_1  D_1  S_1  
     e( 14 - 14) =     13.04511  eV     1   --> A_2  D_2  S_2  
     e( 15 - 15) =     13.46298  eV     1   --> B_1  D_3  S_3  
     e( 16 - 16) =     13.98559  eV     1   --> A_1  D_1  S_1  

 **************************************************************************

 **************************************************************************

                    xk=(   0.66667,   0.00000,   0.00000  )

     point group D_3h (-62m)
     there are  6 classes
     the character table:

       E     2C3   3C2   s_h   2S3   3s_v 
A'_1   1.00  1.00  1.00  1.00  1.00  1.00
A'_2   1.00  1.00 -1.00  1.00  1.00 -1.00
E'     2.00 -1.00  0.00  2.00 -1.00  0.00
A''1   1.00  1.00  1.00 -1.00 -1.00 -1.00
A''2   1.00  1.00 -1.00 -1.00 -1.00  1.00
E''    2.00 -1.00  0.00 -2.00  1.00  0.00

     the symmetry operations in each class and the name of the first element:

     E        1
                                                                 
     2C3      3    4
                                                                 
     3C2      2    5    6
                                                                 
     s_h      7
                                                                 
     2S3      9   10
                                                                 
     3s_v     8   12   11
                                                                 

     Band symmetry, D_3h (-62m) point group:

     e(  1 -  2) =    -14.33660  eV     2   --> E'             
     e(  3 -  3) =    -12.32126  eV     1   --> A'_1           
     e(  4 -  5) =     -1.72410  eV     2   --> E''            
     e(  6 -  6) =      8.87863  eV     1   --> A''2           
     e(  7 -  8) =     11.10395  eV     2   --> E'             
     e(  9 -  9) =     11.63157  eV     1   --> A'_1           
     e( 10 - 11) =     12.66369  eV     2   --> E'             
     e( 12 - 13) =     12.76705  eV     2   --> E''            
     e( 14 - 14) =     12.81535  eV     1   --> A'_1           
     e( 15 - 15) =     13.35243  eV     1   --> A''2           
     e( 16 - 16) =     14.04663  eV     1   -->   ?

 **************************************************************************

 **************************************************************************

                    xk=(   0.65833,   0.01443,   0.00000  )

     point group C_2v (mm2) 
     there are  4 classes
     the character table:

       E     C2    s_v   s_v' 
A_1    1.00  1.00  1.00  1.00
A_2    1.00  1.00 -1.00 -1.00
B_1    1.00 -1.00  1.00 -1.00
B_2    1.00 -1.00 -1.00  1.00

     the symmetry operations in each class and the name of the first element:

     E        1
                                                                 
     C2       2
                                                                 
     s_v      4
                                                                 
     s_v'     3
                                                                 

     Band symmetry, C_2v (mm2)  point group:

     e(  1 -  1) =    -14.49929  eV     1   --> B_2  D_4  S_4  
     e(  2 -  2) =    -14.19999  eV     1   --> A_1  D_1  S_1  
     e(  3 -  3) =    -12.28547  eV     1   --> A_1  D_1  S_1  
     e(  4 -  4) =     -1.95099  eV     1   --> A_2  D_2  S_2  
     e(  5 -  5) =     -1.49948  eV     1   --> B_1  D_3  S_3  
     e(  6 -  6) =      8.88957  eV     1   --> B_1  D_3  S_3  
     e(  7 -  7) =     10.99508  eV     1   --> B_2  D_4  S_4  
     e(  8 -  8) =     11.11636  eV     1   --> A_1  D_1  S_1  
     e(  9 -  9) =     11.61255  eV     1   --> A_1  D_1  S_1  
     e( 10 - 10) =     12.43723  eV     1   --> B_2  D_4  S_4  
     e( 11 - 11) =     12.50238  eV     1   --> A_2  D_2  S_2  
     e( 12 - 12) =     12.54638  eV     1   --> A_1  D_1  S_1  
     e( 13 - 13) =     12.82150  eV     1   --> B_1  D_3  S_3  
     e( 14 - 14) =     13.16649  eV     1   --> A_1  D_1  S_1  
     e( 15 - 15) =     13.56978  eV     1   --> B_1  D_3  S_3  
     e( 16 - 16) =     13.96124  eV     1   --> B_2  D_4  S_4  

 **************************************************************************

 **************************************************************************

                    xk=(   0.65000,   0.02887,   0.00000  )

     Band symmetry, C_2v (mm2)  point group:

     e(  1 -  1) =    -14.65380  eV     1   --> B_2  D_4  S_4  
     e(  2 -  2) =    -14.12718  eV     1   --> A_1  D_1  S_1  
     e(  3 -  3) =    -12.17501  eV     1   --> A_1  D_1  S_1  
     e(  4 -  4) =     -2.16705  eV     1   --> A_2  D_2  S_2  
     e(  5 -  5) =     -1.29114  eV     1   --> B_1  D_3  S_3  
     e(  6 -  6) =      8.92388  eV     1   --> B_1  D_3  S_3  
     e(  7 -  7) =     10.86825  eV     1   --> B_2  D_4  S_4  
     e(  8 -  8) =     11.01539  eV     1   --> A_1  D_1  S_1  
     e(  9 -  9) =     11.49973  eV     1   --> A_1  D_1  S_1  
     e( 10 - 10) =     12.22009  eV     1   --> B_2  D_4  S_4  
     e( 11 - 11) =     12.25114  eV     1   --> A_2  D_2  S_2  
     e( 12 - 12) =     12.33733  eV     1   --> A_1  D_1  S_1  
     e( 13 - 13) =     12.65829  eV     1   --> B_1  D_3  S_3  
     e( 14 - 14) =     13.62179  eV     1   --> A_1  D_1  S_1  
     e( 15 - 15) =     13.89554  eV     1   --> B_2  D_4  S_4  
     e( 16 - 16) =     13.99432  eV     1   --> B_1  D_3  S_3  

 **************************************************************************

 **************************************************************************

                    xk=(   0.64167,   0.04330,   0.00000  )

     Band symmetry, C_2v (mm2)  point group:

     e(  1 -  1) =    -14.80014  eV     1   --> B_2  D_4  S_4  
     e(  2 -  2) =    -14.11278  eV     1   --> A_1  D_1  S_1  
     e(  3 -  3) =    -11.99612  eV     1   --> A_1  D_1  S_1  
     e(  4 -  4) =     -2.37211  eV     1   --> A_2  D_2  S_2  
     e(  5 -  5) =     -1.10038  eV     1   --> B_1  D_3  S_3  
     e(  6 -  6) =      8.98229  eV     1   --> B_1  D_3  S_3  
     e(  7 -  7) =     10.72921  eV     1   --> B_2  D_4  S_4  
     e(  8 -  8) =     10.85941  eV     1   --> A_1  D_1  S_1  
     e(  9 -  9) =     11.27626  eV     1   --> A_1  D_1  S_1  
     e( 10 - 10) =     12.01214  eV     1   --> B_2  D_4  S_4  
     e( 11 - 11) =     12.01336  eV     1   --> A_2  D_2  S_2  
     e( 12 - 12) =     12.12371  eV     1   --> A_1  D_1  S_1  
     e( 13 - 13) =     12.46754  eV     1   --> B_1  D_3  S_3  
     e( 14 - 14) =     13.84009  eV     1   --> B_2  D_4  S_4  
     e( 15 - 15) =     14.09786  eV     1   --> A_1  D_1  S_1  
     e( 16 - 16) =     14.16152  eV     1   --> A_2  D_2  S_2  

 **************************************************************************

 **************************************************************************

                    xk=(   0.63333,   0.05774,   0.00000  )

     Band symmetry, C_2v (mm2)  point group:

     e(  1 -  1) =    -14.93825  eV     1   --> B_2  D_4  S_4  
     e(  2 -  2) =    -14.14177  eV     1   --> A_1  D_1  S_1  
     e(  3 -  3) =    -11.76474  eV     1   --> A_1  D_1  S_1  
     e(  4 -  4) =     -2.56606  eV     1   --> A_2  D_2  S_2  
     e(  5 -  5) =     -0.92803  eV     1   --> B_1  D_3  S_3  
     e(  6 -  6) =      9.06412  eV     1   --> B_1  D_3  S_3  
     e(  7 -  7) =     10.58341  eV     1   --> B_2  D_4  S_4  
     e(  8 -  8) =     10.65684  eV     1   --> A_1  D_1  S_1  
     e(  9 -  9) =     10.98864  eV     1   --> A_1  D_1  S_1  
     e( 10 - 10) =     11.78908  eV     1   --> A_2  D_2  S_2  
     e( 11 - 11) =     11.81365  eV     1   --> B_2  D_4  S_4  
     e( 12 - 12) =     11.91487  eV     1   --> A_1  D_1  S_1  
     e( 13 - 13) =     12.28216  eV     1   --> B_1  D_3  S_3  
     e( 14 - 14) =     13.78642  eV     1   --> B_2  D_4  S_4  
     e( 15 - 15) =     13.93971  eV     1   --> A_2  D_2  S_2  
     e( 16 - 16) =     14.28288  eV     1   --> A_1  D_1  S_1  

 **************************************************************************

 **************************************************************************

                    xk=(   0.62500,   0.07217,   0.00000  )

     Band symmetry, C_2v (mm2)  point group:

     e(  1 -  1) =    -15.06811  eV     1   --> B_2  D_4  S_4  
     e(  2 -  2) =    -14.19834  eV     1   --> A_1  D_1  S_1  
     e(  3 -  3) =    -11.49783  eV     1   --> A_1  D_1  S_1  
     e(  4 -  4) =     -2.74878  eV     1   --> A_2  D_2  S_2  
     e(  5 -  5) =     -0.77450  eV     1   --> B_1  D_3  S_3  
     e(  6 -  6) =      9.16692  eV     1   --> B_1  D_3  S_3  
     e(  7 -  7) =     10.37031  eV     1   --> A_1  D_1  S_1  
     e(  8 -  8) =     10.43532  eV     1   --> B_2  D_4  S_4  
     e(  9 -  9) =     10.71843  eV     1   --> A_1  D_1  S_1  
     e( 10 - 10) =     11.57830  eV     1   --> A_2  D_2  S_2  
     e( 11 - 11) =     11.62505  eV     1   --> B_2  D_4  S_4  
     e( 12 - 12) =     11.71650  eV     1   --> A_1  D_1  S_1  
     e( 13 - 13) =     12.11082  eV     1   --> B_1  D_3  S_3  
     e( 14 - 14) =     13.72813  eV     1   --> B_2  D_4  S_4  
     e( 15 - 15) =     13.73119  eV     1   --> A_2  D_2  S_2  
     e( 16 - 16) =     14.16487  eV     1   --> A_1  D_1  S_1  

 **************************************************************************

 **************************************************************************

                    xk=(   0.61667,   0.08660,   0.00000  )

     Band symmetry, C_2v (mm2)  point group:

     e(  1 -  1) =    -15.18968  eV     1   --> B_2  D_4  S_4  
     e(  2 -  2) =    -14.27042  eV     1   --> A_1  D_1  S_1  
     e(  3 -  3) =    -11.20879  eV     1   --> A_1  D_1  S_1  
     e(  4 -  4) =     -2.92016  eV     1   --> A_2  D_2  S_2  
     e(  5 -  5) =     -0.63969  eV     1   --> B_1  D_3  S_3  
     e(  6 -  6) =      9.28642  eV     1   --> B_1  D_3  S_3  
     e(  7 -  7) =      9.98698  eV     1   --> A_1  D_1  S_1  
     e(  8 -  8) =     10.28852  eV     1   --> B_2  D_4  S_4  
     e(  9 -  9) =     10.50932  eV     1   --> A_1  D_1  S_1  
     e( 10 - 10) =     11.38105  eV     1   --> A_2  D_2  S_2  
     e( 11 - 11) =     11.44684  eV     1   --> B_2  D_4  S_4  
     e( 12 - 12) =     11.53038  eV     1   --> A_1  D_1  S_1  
     e( 13 - 13) =     11.95801  eV     1   --> B_1  D_3  S_3  
     e( 14 - 14) =     13.53599  eV     1   --> A_2  D_2  S_2  
     e( 15 - 15) =     13.66203  eV     1   --> B_2  D_4  S_4  
     e( 16 - 16) =     14.02935  eV     1   --> A_1  D_1  S_1  

 **************************************************************************

 **************************************************************************

                    xk=(   0.60833,   0.10104,   0.00000  )

     Band symmetry, C_2v (mm2)  point group:

     e(  1 -  1) =    -15.30295  eV     1   --> B_2  D_4  S_4  
     e(  2 -  2) =    -14.34991  eV     1   --> A_1  D_1  S_1  
     e(  3 -  3) =    -10.90730  eV     1   --> A_1  D_1  S_1  
     e(  4 -  4) =     -3.08009  eV     1   --> A_2  D_2  S_2  
     e(  5 -  5) =     -0.52302  eV     1   --> B_1  D_3  S_3  
     e(  6 -  6) =      9.41643  eV     1   --> B_1  D_3  S_3  
     e(  7 -  7) =      9.55527  eV     1   --> A_1  D_1  S_1  
     e(  8 -  8) =     10.14578  eV     1   --> B_2  D_4  S_4  
     e(  9 -  9) =     10.33491  eV     1   --> A_1  D_1  S_1  
     e( 10 - 10) =     11.19734  eV     1   --> A_2  D_2  S_2  
     e( 11 - 11) =     11.27947  eV     1   --> B_2  D_4  S_4  
     e( 12 - 12) =     11.35680  eV     1   --> A_1  D_1  S_1  
     e( 13 - 13) =     11.82734  eV     1   --> B_1  D_3  S_3  
     e( 14 - 14) =     13.35415  eV     1   --> A_2  D_2  S_2  
     e( 15 - 15) =     13.58792  eV     1   --> B_2  D_4  S_4  
     e( 16 - 16) =     13.89346  eV     1   --> A_1  D_1  S_1  

 **************************************************************************

 **************************************************************************

                    xk=(   0.60000,   0.11547,   0.00000  )

     Band symmetry, C_2v (mm2)  point group:

     e(  1 -  1) =    -15.40790  eV     1   --> B_2  D_4  S_4  
     e(  2 -  2) =    -14.43161  eV     1   --> A_1  D_1  S_1  
     e(  3 -  3) =    -10.60041  eV     1   --> A_1  D_1  S_1  
     e(  4 -  4) =     -3.22850  eV     1   --> A_2  D_2  S_2  
     e(  5 -  5) =     -0.42358  eV     1   --> B_1  D_3  S_3  
     e(  6 -  6) =      9.10681  eV     1   --> A_1  D_1  S_1  
     e(  7 -  7) =      9.54873  eV     1   --> B_1  D_3  S_3  
     e(  8 -  8) =     10.00913  eV     1   --> B_2  D_4  S_4  
     e(  9 -  9) =     10.17837  eV     1   --> A_1  D_1  S_1  
     e( 10 - 10) =     11.02720  eV     1   --> A_2  D_2  S_2  
     e( 11 - 11) =     11.12335  eV     1   --> B_2  D_4  S_4  
     e( 12 - 12) =     11.19572  eV     1   --> A_1  D_1  S_1  
     e( 13 - 13) =     11.72242  eV     1   --> B_1  D_3  S_3  
     e( 14 - 14) =     13.18569  eV     1   --> A_2  D_2  S_2  
     e( 15 - 15) =     13.50757  eV     1   --> B_2  D_4  S_4  
     e( 16 - 16) =     13.76171  eV     1   --> A_1  D_1  S_1  

 **************************************************************************

 **************************************************************************

                    xk=(   0.59167,   0.12990,   0.00000  )

     Band symmetry, C_2v (mm2)  point group:

     e(  1 -  1) =    -15.50451  eV     1   --> B_2  D_4  S_4  
     e(  2 -  2) =    -14.51216  eV     1   --> A_1  D_1  S_1  
     e(  3 -  3) =    -10.29366  eV     1   --> A_1  D_1  S_1  
     e(  4 -  4) =     -3.36531  eV     1   --> A_2  D_2  S_2  
     e(  5 -  5) =     -0.34002  eV     1   --> B_1  D_3  S_3  
     e(  6 -  6) =      8.65787  eV     1   --> A_1  D_1  S_1  
     e(  7 -  7) =      9.67363  eV     1   --> B_1  D_3  S_3  
     e(  8 -  8) =      9.88012  eV     1   --> B_2  D_4  S_4  
     e(  9 -  9) =     10.03509  eV     1   --> A_1  D_1  S_1  
     e( 10 - 10) =     10.87062  eV     1   --> A_2  D_2  S_2  
     e( 11 - 11) =     10.97882  eV     1   --> B_2  D_4  S_4  
     e( 12 - 12) =     11.04714  eV     1   --> A_1  D_1  S_1  
     e( 13 - 13) =     11.64668  eV     1   --> B_1  D_3  S_3  
     e( 14 - 14) =     13.03063  eV     1   --> A_2  D_2  S_2  
     e( 15 - 15) =     13.42377  eV     1   --> B_2  D_4  S_4  
     e( 16 - 16) =     13.63645  eV     1   --> A_1  D_1  S_1  

 **************************************************************************

 **************************************************************************

                    xk=(   0.58333,   0.14434,   0.00000  )

     Band symmetry, C_2v (mm2)  point group:

     e(  1 -  1) =    -15.59275  eV     1   --> B_2  D_4  S_4  
     e(  2 -  2) =    -14.58935  eV     1   --> A_1  D_1  S_1  
     e(  3 -  3) =     -9.99174  eV     1   --> A_1  D_1  S_1  
     e(  4 -  4) =     -3.49043  eV     1   --> A_2  D_2  S_2  
     e(  5 -  5) =     -0.27089  eV     1   --> B_1  D_3  S_3  
     e(  6 -  6) =      8.21816  eV     1   --> A_1  D_1  S_1  
     e(  7 -  7) =      9.75994  eV     1   --> B_2  D_4  S_4  
     e(  8 -  8) =      9.78131  eV     1   --> B_1  D_3  S_3  
     e(  9 -  9) =      9.90394  eV     1   --> A_1  D_1  S_1  
     e( 10 - 10) =     10.72763  eV     1   --> A_2  D_2  S_2  
     e( 11 - 11) =     10.84617  eV     1   --> B_2  D_4  S_4  
     e( 12 - 12) =     10.91112  eV     1   --> A_1  D_1  S_1  
     e( 13 - 13) =     11.60237  eV     1   --> B_1  D_3  S_3  
     e( 14 - 14) =     12.88900  eV     1   --> A_2  D_2  S_2  
     e( 15 - 15) =     13.33956  eV     1   --> B_2  D_4  S_4  
     e( 16 - 16) =     13.51920  eV     1   --> A_1  D_1  S_1  

 **************************************************************************

 **************************************************************************

                    xk=(   0.57500,   0.15877,   0.00000  )

     Band symmetry, C_2v (mm2)  point group:

     e(  1 -  1) =    -15.67263  eV     1   --> B_2  D_4  S_4  
     e(  2 -  2) =    -14.66167  eV     1   --> A_1  D_1  S_1  
     e(  3 -  3) =     -9.69898  eV     1   --> A_1  D_1  S_1  
     e(  4 -  4) =     -3.60382  eV     1   --> A_2  D_2  S_2  
     e(  5 -  5) =     -0.21450  eV     1   --> B_1  D_3  S_3  
     e(  6 -  6) =      7.79510  eV     1   --> A_1  D_1  S_1  
     e(  7 -  7) =      9.64947  eV     1   --> B_2  D_4  S_4  
     e(  8 -  8) =      9.78474  eV     1   --> A_1  D_1  S_1  
     e(  9 -  9) =      9.86413  eV     1   --> B_1  D_3  S_3  
     e( 10 - 10) =     10.59824  eV     1   --> A_2  D_2  S_2  
     e( 11 - 11) =     10.72564  eV     1   --> B_2  D_4  S_4  
     e( 12 - 12) =     10.78775  eV     1   --> A_1  D_1  S_1  
     e( 13 - 13) =     11.58878  eV     1   --> B_1  D_3  S_3  
     e( 14 - 14) =     12.76081  eV     1   --> A_2  D_2  S_2  
     e( 15 - 15) =     13.25759  eV     1   --> B_2  D_4  S_4  
     e( 16 - 16) =     13.41104  eV     1   --> A_1  D_1  S_1  

 **************************************************************************

 **************************************************************************

                    xk=(   0.56667,   0.17321,   0.00000  )

     Band symmetry, C_2v (mm2)  point group:

     e(  1 -  1) =    -15.74412  eV     1   --> B_2  D_4  S_4  
     e(  2 -  2) =    -14.72809  eV     1   --> A_1  D_1  S_1  
     e(  3 -  3) =     -9.41962  eV     1   --> A_1  D_1  S_1  
     e(  4 -  4) =     -3.70540  eV     1   --> A_2  D_2  S_2  
     e(  5 -  5) =     -0.16922  eV     1   --> B_1  D_3  S_3  
     e(  6 -  6) =      7.39546  eV     1   --> A_1  D_1  S_1  
     e(  7 -  7) =      9.54937  eV     1   --> B_2  D_4  S_4  
     e(  8 -  8) =      9.67757  eV     1   --> A_1  D_1  S_1  
     e(  9 -  9) =      9.91906  eV     1   --> B_1  D_3  S_3  
     e( 10 - 10) =     10.48244  eV     1   --> A_2  D_2  S_2  
     e( 11 - 11) =     10.61739  eV     1   --> B_2  D_4  S_4  
     e( 12 - 12) =     10.67712  eV     1   --> A_1  D_1  S_1  
     e( 13 - 13) =     11.60073  eV     1   --> B_1  D_3  S_3  
     e( 14 - 14) =     12.64607  eV     1   --> A_2  D_2  S_2  
     e( 15 - 15) =     13.18004  eV     1   --> B_2  D_4  S_4  
     e( 16 - 16) =     13.31278  eV     1   --> A_1  D_1  S_1  

 **************************************************************************

 **************************************************************************

                    xk=(   0.55833,   0.18764,   0.00000  )

     Band symmetry, C_2v (mm2)  point group:

     e(  1 -  1) =    -15.80723  eV     1   --> B_2  D_4  S_4  
     e(  2 -  2) =    -14.78787  eV     1   --> A_1  D_1  S_1  
     e(  3 -  3) =     -9.15799  eV     1   --> A_1  D_1  S_1  
     e(  4 -  4) =     -3.79516  eV     1   --> A_2  D_2  S_2  
     e(  5 -  5) =     -0.13346  eV     1   --> B_1  D_3  S_3  
     e(  6 -  6) =      7.02494  eV     1   --> A_1  D_1  S_1  
     e(  7 -  7) =      9.46016  eV     1   --> B_2  D_4  S_4  
     e(  8 -  8) =      9.58260  eV     1   --> A_1  D_1  S_1  
     e(  9 -  9) =      9.94837  eV     1   --> B_1  D_3  S_3  
     e( 10 - 10) =     10.38025  eV     1   --> A_2  D_2  S_2  
     e( 11 - 11) =     10.52160  eV     1   --> B_2  D_4  S_4  
     e( 12 - 12) =     10.57931  eV     1   --> A_1  D_1  S_1  
     e( 13 - 13) =     11.62912  eV     1   --> B_1  D_3  S_3  
     e( 14 - 14) =     12.54481  eV     1   --> A_2  D_2  S_2  
     e( 15 - 15) =     13.10864  eV     1   --> B_2  D_4  S_4  
     e( 16 - 16) =     13.22502  eV     1   --> A_1  D_1  S_1  

 **************************************************************************

 **************************************************************************

                    xk=(   0.55000,   0.20207,   0.00000  )

     Band symmetry, C_2v (mm2)  point group:

     e(  1 -  1) =    -15.86194  eV     1   --> B_2  D_4  S_4  
     e(  2 -  2) =    -14.84046  eV     1   --> A_1  D_1  S_1  
     e(  3 -  3) =     -8.91847  eV     1   --> A_1  D_1  S_1  
     e(  4 -  4) =     -3.87303  eV     1   --> A_2  D_2  S_2  
     e(  5 -  5) =     -0.10566  eV     1   --> B_1  D_3  S_3  
     e(  6 -  6) =      6.68924  eV     1   --> A_1  D_1  S_1  
     e(  7 -  7) =      9.38221  eV     1   --> B_2  D_4  S_4  
     e(  8 -  8) =      9.49998  eV     1   --> A_1  D_1  S_1  
     e(  9 -  9) =      9.95803  eV     1   --> B_1  D_3  S_3  
     e( 10 - 10) =     10.29168  eV     1   --> A_2  D_2  S_2  
     e( 11 - 11) =     10.43837  eV     1   --> B_2  D_4  S_4  
     e( 12 - 12) =     10.49439  eV     1   --> A_1  D_1  S_1  
     e( 13 - 13) =     11.66396  eV     1   --> B_1  D_3  S_3  
     e( 14 - 14) =     12.45703  eV     1   --> A_2  D_2  S_2  
     e( 15 - 15) =     13.04471  eV     1   --> B_2  D_4  S_4  
     e( 16 - 16) =     13.14823  eV     1   --> A_1  D_1  S_1  

 **************************************************************************

 **************************************************************************

                    xk=(   0.54167,   0.21651,   0.00000  )

     Band symmetry, C_2v (mm2)  point group:

     e(  1 -  1) =    -15.90824  eV     1   --> B_2  D_4  S_4  
     e(  2 -  2) =    -14.88549  eV     1   --> A_1  D_1  S_1  
     e(  3 -  3) =     -8.70556  eV     1   --> A_1  D_1  S_1  
     e(  4 -  4) =     -3.93898  eV     1   --> A_2  D_2  S_2  
     e(  5 -  5) =     -0.08450  eV     1   --> B_1  D_3  S_3  
     e(  6 -  6) =      6.39348  eV     1   --> A_1  D_1  S_1  
     e(  7 -  7) =      9.31583  eV     1   --> B_2  D_4  S_4  
     e(  8 -  8) =      9.42986  eV     1   --> A_1  D_1  S_1  
     e(  9 -  9) =      9.95493  eV     1   --> B_1  D_3  S_3  
     e( 10 - 10) =     10.21672  eV     1   --> A_2  D_2  S_2  
     e( 11 - 11) =     10.36780  eV     1   --> B_2  D_4  S_4  
     e( 12 - 12) =     10.42244  eV     1   --> A_1  D_1  S_1  
     e( 13 - 13) =     11.69736  eV     1   --> B_1  D_3  S_3  
     e( 14 - 14) =     12.38273  eV     1   --> A_2  D_2  S_2  
     e( 15 - 15) =     12.98927  eV     1   --> B_2  D_4  S_4  
     e( 16 - 16) =     13.08276  eV     1   --> A_1  D_1  S_1  

 **************************************************************************

 **************************************************************************

                    xk=(   0.53333,   0.23094,   0.00000  )

     Band symmetry, C_2v (mm2)  point group:

     e(  1 -  1) =    -15.94613  eV     1   --> B_2  D_4  S_4  
     e(  2 -  2) =    -14.92266  eV     1   --> A_1  D_1  S_1  
     e(  3 -  3) =     -8.52368  eV     1   --> A_1  D_1  S_1  
     e(  4 -  4) =     -3.99297  eV     1   --> A_2  D_2  S_2  
     e(  5 -  5) =     -0.06882  eV     1   --> B_1  D_3  S_3  
     e(  6 -  6) =      6.14309  eV     1   --> A_1  D_1  S_1  
     e(  7 -  7) =      9.26126  eV     1   --> B_2  D_4  S_4  
     e(  8 -  8) =      9.37234  eV     1   --> A_1  D_1  S_1  
     e(  9 -  9) =      9.94520  eV     1   --> B_1  D_3  S_3  
     e( 10 - 10) =     10.15539  eV     1   --> A_2  D_2  S_2  
     e( 11 - 11) =     10.30998  eV     1   --> B_2  D_4  S_4  
     e( 12 - 12) =     10.36351  eV     1   --> A_1  D_1  S_1  
     e( 13 - 13) =     11.72497  eV     1   --> B_1  D_3  S_3  
     e( 14 - 14) =     12.32194  eV     1   --> A_2  D_2  S_2  
     e( 15 - 15) =     12.94305  eV     1   --> B_2  D_4  S_4  
     e( 16 - 16) =     13.02887  eV     1   --> A_1  D_1  S_1  

 **************************************************************************

 **************************************************************************

                    xk=(   0.52500,   0.24537,   0.00000  )

     Band symmetry, C_2v (mm2)  point group:

     e(  1 -  1) =    -15.97561  eV     1   --> B_2  D_4  S_4  
     e(  2 -  2) =    -14.95176  eV     1   --> A_1  D_1  S_1  
     e(  3 -  3) =     -8.37701  eV     1   --> A_1  D_1  S_1  
     e(  4 -  4) =     -4.03499  eV     1   --> A_2  D_2  S_2  
     e(  5 -  5) =     -0.05762  eV     1   --> B_1  D_3  S_3  
     e(  6 -  6) =      5.94268  eV     1   --> A_1  D_1  S_1  
[...]
     e(  5 -  5) =      2.68377  eV     1   --> A_1  D_1  S_1  
     e(  6 -  6) =      3.42816  eV     1   --> B_2  D_4  S_4  
     e(  7 -  7) =      3.65177  eV     1   --> A_1  D_1  S_1  
     e(  8 -  8) =      5.62760  eV     1   --> B_2  D_4  S_4  
     e(  9 -  9) =      6.31766  eV     1   --> A_1  D_1  S_1  
     e( 10 - 10) =      6.44908  eV     1   --> B_2  D_4  S_4  
     e( 11 - 11) =      6.59877  eV     1   --> A_1  D_1  S_1  
     e( 12 - 12) =      9.56020  eV     1   --> B_2  D_4  S_4  
     e( 13 - 13) =     10.59453  eV     1   --> B_1  D_3  S_3  
     e( 14 - 14) =     10.74533  eV     1   --> A_1  D_1  S_1  
     e( 15 - 15) =     12.89753  eV     1   --> A_1  D_1  S_1  
     e( 16 - 16) =     14.75559  eV     1   --> B_2  D_4  S_4  

 **************************************************************************

 **************************************************************************

                    xk=(   0.20000,   0.11547,   0.00000  )

     Band symmetry, C_2v (mm2)  point group:

     e(  1 -  1) =    -20.31884  eV     1   --> A_1  D_1  S_1  
     e(  2 -  2) =     -8.24063  eV     1   --> B_2  D_4  S_4  
     e(  3 -  3) =     -7.89140  eV     1   --> A_1  D_1  S_1  
     e(  4 -  4) =     -6.29004  eV     1   --> B_1  D_3  S_3  
     e(  5 -  5) =      2.45820  eV     1   --> A_1  D_1  S_1  
     e(  6 -  6) =      3.20308  eV     1   --> B_2  D_4  S_4  
     e(  7 -  7) =      3.42616  eV     1   --> A_1  D_1  S_1  
     e(  8 -  8) =      5.41624  eV     1   --> B_2  D_4  S_4  
     e(  9 -  9) =      6.17451  eV     1   --> A_1  D_1  S_1  
     e( 10 - 10) =      6.57380  eV     1   --> A_1  D_1  S_1  
     e( 11 - 11) =      6.85961  eV     1   --> B_2  D_4  S_4  
     e( 12 - 12) =      9.34593  eV     1   --> B_2  D_4  S_4  
     e( 13 - 13) =     10.08216  eV     1   --> B_1  D_3  S_3  
     e( 14 - 14) =     10.52546  eV     1   --> A_1  D_1  S_1  
     e( 15 - 15) =     12.62083  eV     1   --> A_1  D_1  S_1  
     e( 16 - 16) =     14.58018  eV     1   --> B_2  D_4  S_4  

 **************************************************************************

 **************************************************************************

                    xk=(   0.18333,   0.10585,   0.00000  )

     Band symmetry, C_2v (mm2)  point group:

     e(  1 -  1) =    -20.46832  eV     1   --> A_1  D_1  S_1  
     e(  2 -  2) =     -8.41701  eV     1   --> B_2  D_4  S_4  
     e(  3 -  3) =     -7.48064  eV     1   --> A_1  D_1  S_1  
     e(  4 -  4) =     -6.11073  eV     1   --> B_1  D_3  S_3  
     e(  5 -  5) =      2.25059  eV     1   --> A_1  D_1  S_1  
     e(  6 -  6) =      2.99553  eV     1   --> B_2  D_4  S_4  
     e(  7 -  7) =      3.21854  eV     1   --> A_1  D_1  S_1  
     e(  8 -  8) =      5.21534  eV     1   --> B_2  D_4  S_4  
     e(  9 -  9) =      5.99246  eV     1   --> A_1  D_1  S_1  
     e( 10 - 10) =      6.59881  eV     1   --> A_1  D_1  S_1  
     e( 11 - 11) =      7.26045  eV     1   --> B_2  D_4  S_4  
     e( 12 - 12) =      9.14818  eV     1   --> B_2  D_4  S_4  
     e( 13 - 13) =      9.59115  eV     1   --> B_1  D_3  S_3  
     e( 14 - 14) =     10.32275  eV     1   --> A_1  D_1  S_1  
     e( 15 - 15) =     12.35098  eV     1   --> A_1  D_1  S_1  
     e( 16 - 16) =     14.41293  eV     1   --> B_2  D_4  S_4  

 **************************************************************************

 **************************************************************************

                    xk=(   0.16667,   0.09623,   0.00000  )

     Band symmetry, C_2v (mm2)  point group:

     e(  1 -  1) =    -20.60504  eV     1   --> A_1  D_1  S_1  
     e(  2 -  2) =     -8.57884  eV     1   --> B_2  D_4  S_4  
     e(  3 -  3) =     -7.08416  eV     1   --> A_1  D_1  S_1  
     e(  4 -  4) =     -5.93201  eV     1   --> B_1  D_3  S_3  
     e(  5 -  5) =      2.06097  eV     1   --> A_1  D_1  S_1  
     e(  6 -  6) =      2.80577  eV     1   --> B_2  D_4  S_4  
     e(  7 -  7) =      3.02894  eV     1   --> A_1  D_1  S_1  
     e(  8 -  8) =      5.03004  eV     1   --> B_2  D_4  S_4  
     e(  9 -  9) =      5.81452  eV     1   --> A_1  D_1  S_1  
     e( 10 - 10) =      6.62903  eV     1   --> A_1  D_1  S_1  
     e( 11 - 11) =      7.64317  eV     1   --> B_2  D_4  S_4  
     e( 12 - 12) =      8.96723  eV     1   --> B_2  D_4  S_4  
     e( 13 - 13) =      9.12478  eV     1   --> B_1  D_3  S_3  
     e( 14 - 14) =     10.13723  eV     1   --> A_1  D_1  S_1  
     e( 15 - 15) =     12.09371  eV     1   --> A_1  D_1  S_1  
     e( 16 - 16) =     14.25614  eV     1   --> B_2  D_4  S_4  

 **************************************************************************

 **************************************************************************

                    xk=(   0.15000,   0.08660,   0.00000  )

     Band symmetry, C_2v (mm2)  point group:

     e(  1 -  1) =    -20.72893  eV     1   --> A_1  D_1  S_1  
     e(  2 -  2) =     -8.72586  eV     1   --> B_2  D_4  S_4  
     e(  3 -  3) =     -6.70538  eV     1   --> A_1  D_1  S_1  
     e(  4 -  4) =     -5.75621  eV     1   --> B_1  D_3  S_3  
     e(  5 -  5) =      1.88937  eV     1   --> A_1  D_1  S_1  
     e(  6 -  6) =      2.63391  eV     1   --> B_2  D_4  S_4  
     e(  7 -  7) =      2.85736  eV     1   --> A_1  D_1  S_1  
     e(  8 -  8) =      4.86160  eV     1   --> B_2  D_4  S_4  
     e(  9 -  9) =      5.64989  eV     1   --> A_1  D_1  S_1  
     e( 10 - 10) =      6.65386  eV     1   --> A_1  D_1  S_1  
     e( 11 - 11) =      8.00328  eV     1   --> B_2  D_4  S_4  
     e( 12 - 12) =      8.68638  eV     1   --> B_1  D_3  S_3  
     e( 13 - 13) =      8.80342  eV     1   --> B_2  D_4  S_4  
     e( 14 - 14) =      9.96892  eV     1   --> A_1  D_1  S_1  
     e( 15 - 15) =     11.85389  eV     1   --> A_1  D_1  S_1  
     e( 16 - 16) =     14.11142  eV     1   --> B_2  D_4  S_4  

 **************************************************************************

 **************************************************************************

                    xk=(   0.13333,   0.07698,   0.00000  )

     Band symmetry, C_2v (mm2)  point group:

     e(  1 -  1) =    -20.83992  eV     1   --> A_1  D_1  S_1  
     e(  2 -  2) =     -8.85787  eV     1   --> B_2  D_4  S_4  
     e(  3 -  3) =     -6.34817  eV     1   --> A_1  D_1  S_1  
     e(  4 -  4) =     -5.58596  eV     1   --> B_1  D_3  S_3  
     e(  5 -  5) =      1.73581  eV     1   --> A_1  D_1  S_1  
     e(  6 -  6) =      2.48003  eV     1   --> B_2  D_4  S_4  
     e(  7 -  7) =      2.70384  eV     1   --> A_1  D_1  S_1  
     e(  8 -  8) =      4.71048  eV     1   --> B_2  D_4  S_4  
     e(  9 -  9) =      5.50116  eV     1   --> A_1  D_1  S_1  
     e( 10 - 10) =      6.66980  eV     1   --> A_1  D_1  S_1  
     e( 11 - 11) =      8.27937  eV     1   --> B_1  D_3  S_3  
     e( 12 - 12) =      8.33591  eV     1   --> B_2  D_4  S_4  
     e( 13 - 13) =      8.65812  eV     1   --> B_2  D_4  S_4  
     e( 14 - 14) =      9.81786  eV     1   --> A_1  D_1  S_1  
     e( 15 - 15) =     11.63557  eV     1   --> A_1  D_1  S_1  
     e( 16 - 16) =     13.97990  eV     1   --> B_2  D_4  S_4  

 **************************************************************************

 **************************************************************************

                    xk=(   0.11667,   0.06736,   0.00000  )

     Band symmetry, C_2v (mm2)  point group:

     e(  1 -  1) =    -20.93797  eV     1   --> A_1  D_1  S_1  
     e(  2 -  2) =     -8.97471  eV     1   --> B_2  D_4  S_4  
     e(  3 -  3) =     -6.01680  eV     1   --> A_1  D_1  S_1  
     e(  4 -  4) =     -5.42428  eV     1   --> B_1  D_3  S_3  
     e(  5 -  5) =      1.60029  eV     1   --> A_1  D_1  S_1  
     e(  6 -  6) =      2.34418  eV     1   --> B_2  D_4  S_4  
     e(  7 -  7) =      2.56837  eV     1   --> A_1  D_1  S_1  
     e(  8 -  8) =      4.57690  eV     1   --> B_2  D_4  S_4  
     e(  9 -  9) =      5.36928  eV     1   --> A_1  D_1  S_1  
     e( 10 - 10) =      6.67550  eV     1   --> A_1  D_1  S_1  
     e( 11 - 11) =      7.90729  eV     1   --> B_1  D_3  S_3  
     e( 12 - 12) =      8.51602  eV     1   --> B_2  D_4  S_4  
     e( 13 - 13) =      8.65315  eV     1   --> B_2  D_4  S_4  
     e( 14 - 14) =      9.68410  eV     1   --> A_1  D_1  S_1  
     e( 15 - 15) =     11.44202  eV     1   --> A_1  D_1  S_1  
     e( 16 - 16) =     13.86240  eV     1   --> B_2  D_4  S_4  

 **************************************************************************

 **************************************************************************

                    xk=(   0.10000,   0.05774,   0.00000  )

     Band symmetry, C_2v (mm2)  point group:

     e(  1 -  1) =    -21.02303  eV     1   --> A_1  D_1  S_1  
     e(  2 -  2) =     -9.07623  eV     1   --> B_2  D_4  S_4  
     e(  3 -  3) =     -5.71579  eV     1   --> A_1  D_1  S_1  
     e(  4 -  4) =     -5.27437  eV     1   --> B_1  D_3  S_3  
     e(  5 -  5) =      1.48283  eV     1   --> A_1  D_1  S_1  
     e(  6 -  6) =      2.22640  eV     1   --> B_2  D_4  S_4  
     e(  7 -  7) =      2.45097  eV     1   --> A_1  D_1  S_1  
     e(  8 -  8) =      4.46099  eV     1   --> B_2  D_4  S_4  
     e(  9 -  9) =      5.25469  eV     1   --> A_1  D_1  S_1  
     e( 10 - 10) =      6.67134  eV     1   --> A_1  D_1  S_1  
     e( 11 - 11) =      7.57371  eV     1   --> B_1  D_3  S_3  
     e( 12 - 12) =      8.40930  eV     1   --> B_2  D_4  S_4  
     e( 13 - 13) =      8.91972  eV     1   --> B_2  D_4  S_4  
     e( 14 - 14) =      9.56773  eV     1   --> A_1  D_1  S_1  
     e( 15 - 15) =     11.27526  eV     1   --> A_1  D_1  S_1  
     e( 16 - 16) =     13.75955  eV     1   --> B_2  D_4  S_4  

 **************************************************************************

 **************************************************************************

                    xk=(   0.08333,   0.04811,   0.00000  )

     Band symmetry, C_2v (mm2)  point group:

     e(  1 -  1) =    -21.09506  eV     1   --> A_1  D_1  S_1  
     e(  2 -  2) =     -9.16231  eV     1   --> B_2  D_4  S_4  
     e(  3 -  3) =     -5.44994  eV     1   --> A_1  D_1  S_1  
     e(  4 -  4) =     -5.13955  eV     1   --> B_1  D_3  S_3  
     e(  5 -  5) =      1.38343  eV     1   --> A_1  D_1  S_1  
     e(  6 -  6) =      2.12670  eV     1   --> B_2  D_4  S_4  
     e(  7 -  7) =      2.35163  eV     1   --> A_1  D_1  S_1  
     e(  8 -  8) =      4.36282  eV     1   --> B_2  D_4  S_4  
     e(  9 -  9) =      5.15761  eV     1   --> A_1  D_1  S_1  
     e( 10 - 10) =      6.65897  eV     1   --> A_1  D_1  S_1  
     e( 11 - 11) =      7.28282  eV     1   --> B_1  D_3  S_3  
     e( 12 - 12) =      8.31438  eV     1   --> B_2  D_4  S_4  
     e( 13 - 13) =      9.15614  eV     1   --> B_2  D_4  S_4  
     e( 14 - 14) =      9.46890  eV     1   --> A_1  D_1  S_1  
     e( 15 - 15) =     11.13647  eV     1   --> A_1  D_1  S_1  
     e( 16 - 16) =     13.67182  eV     1   --> B_2  D_4  S_4  

 **************************************************************************

 **************************************************************************

                    xk=(   0.06667,   0.03849,   0.00000  )

     Band symmetry, C_2v (mm2)  point group:

     e(  1 -  1) =    -21.15402  eV     1   --> A_1  D_1  S_1  
     e(  2 -  2) =     -9.23286  eV     1   --> B_2  D_4  S_4  
     e(  3 -  3) =     -5.22398  eV     1   --> A_1  D_1  S_1  
     e(  4 -  4) =     -5.02318  eV     1   --> B_1  D_3  S_3  
     e(  5 -  5) =      1.30211  eV     1   --> A_1  D_1  S_1  
     e(  6 -  6) =      2.04511  eV     1   --> B_2  D_4  S_4  
     e(  7 -  7) =      2.27037  eV     1   --> A_1  D_1  S_1  
     e(  8 -  8) =      4.28245  eV     1   --> B_2  D_4  S_4  
     e(  9 -  9) =      5.07813  eV     1   --> A_1  D_1  S_1  
     e( 10 - 10) =      6.64122  eV     1   --> A_1  D_1  S_1  
     e( 11 - 11) =      7.03830  eV     1   --> B_1  D_3  S_3  
     e( 12 - 12) =      8.23628  eV     1   --> B_2  D_4  S_4  
     e( 13 - 13) =      9.35460  eV     1   --> B_2  D_4  S_4  
     e( 14 - 14) =      9.38778  eV     1   --> A_1  D_1  S_1  
     e( 15 - 15) =     11.02551  eV     1   --> A_1  D_1  S_1  
     e( 16 - 16) =     13.59959  eV     1   --> B_2  D_4  S_4  

 **************************************************************************

 **************************************************************************

                    xk=(   0.05000,   0.02887,   0.00000  )

     Band symmetry, C_2v (mm2)  point group:

     e(  1 -  1) =    -21.19992  eV     1   --> A_1  D_1  S_1  
     e(  2 -  2) =     -9.28781  eV     1   --> B_2  D_4  S_4  
     e(  3 -  3) =     -5.04247  eV     1   --> A_1  D_1  S_1  
     e(  4 -  4) =     -4.92855  eV     1   --> B_1  D_3  S_3  
     e(  5 -  5) =      1.23886  eV     1   --> A_1  D_1  S_1  
     e(  6 -  6) =      1.98163  eV     1   --> B_2  D_4  S_4  
     e(  7 -  7) =      2.20717  eV     1   --> A_1  D_1  S_1  
     e(  8 -  8) =      4.21991  eV     1   --> B_2  D_4  S_4  
     e(  9 -  9) =      5.01630  eV     1   --> A_1  D_1  S_1  
     e( 10 - 10) =      6.62171  eV     1   --> A_1  D_1  S_1  
     e( 11 - 11) =      6.84393  eV     1   --> B_1  D_3  S_3  
     e( 12 - 12) =      8.17539  eV     1   --> B_2  D_4  S_4  
     e( 13 - 13) =      9.32448  eV     1   --> A_1  D_1  S_1  
     e( 14 - 14) =      9.51209  eV     1   --> B_2  D_4  S_4  
     e( 15 - 15) =     10.94153  eV     1   --> A_1  D_1  S_1  
     e( 16 - 16) =     13.54311  eV     1   --> B_2  D_4  S_4  

 **************************************************************************

 **************************************************************************

                    xk=(   0.03333,   0.01925,   0.00000  )

     Band symmetry, C_2v (mm2)  point group:

     e(  1 -  1) =    -21.23272  eV     1   --> A_1  D_1  S_1  
     e(  2 -  2) =     -9.32710  eV     1   --> B_2  D_4  S_4  
     e(  3 -  3) =     -4.90959  eV     1   --> A_1  D_1  S_1  
     e(  4 -  4) =     -4.85863  eV     1   --> B_1  D_3  S_3  
     e(  5 -  5) =      1.19368  eV     1   --> A_1  D_1  S_1  
     e(  6 -  6) =      1.93629  eV     1   --> B_2  D_4  S_4  
     e(  7 -  7) =      2.16203  eV     1   --> A_1  D_1  S_1  
     e(  8 -  8) =      4.17522  eV     1   --> B_2  D_4  S_4  
     e(  9 -  9) =      4.97214  eV     1   --> A_1  D_1  S_1  
     e( 10 - 10) =      6.60402  eV     1   --> A_1  D_1  S_1  
     e( 11 - 11) =      6.70237  eV     1   --> B_1  D_3  S_3  
     e( 12 - 12) =      8.13185  eV     1   --> B_2  D_4  S_4  
     e( 13 - 13) =      9.27918  eV     1   --> A_1  D_1  S_1  
     e( 14 - 14) =      9.62631  eV     1   --> B_2  D_4  S_4  
     e( 15 - 15) =     10.88299  eV     1   --> A_1  D_1  S_1  
     e( 16 - 16) =     13.50262  eV     1   --> B_2  D_4  S_4  

 **************************************************************************

 **************************************************************************

                    xk=(   0.01667,   0.00962,   0.00000  )

     Band symmetry, C_2v (mm2)  point group:

     e(  1 -  1) =    -21.25241  eV     1   --> A_1  D_1  S_1  
     e(  2 -  2) =     -9.35069  eV     1   --> B_2  D_4  S_4  
     e(  3 -  3) =     -4.82845  eV     1   --> A_1  D_1  S_1  
     e(  4 -  4) =     -4.81567  eV     1   --> B_1  D_3  S_3  
     e(  5 -  5) =      1.16657  eV     1   --> A_1  D_1  S_1  
     e(  6 -  6) =      1.90908  eV     1   --> B_2  D_4  S_4  
     e(  7 -  7) =      2.13494  eV     1   --> A_1  D_1  S_1  
     e(  8 -  8) =      4.14840  eV     1   --> B_2  D_4  S_4  
     e(  9 -  9) =      4.94565  eV     1   --> A_1  D_1  S_1  
     e( 10 - 10) =      6.59189  eV     1   --> A_1  D_1  S_1  
     e( 11 - 11) =      6.61645  eV     1   --> B_1  D_3  S_3  
     e( 12 - 12) =      8.10571  eV     1   --> B_2  D_4  S_4  
     e( 13 - 13) =      9.25195  eV     1   --> A_1  D_1  S_1  
     e( 14 - 14) =      9.69555  eV     1   --> B_2  D_4  S_4  
     e( 15 - 15) =     10.84862  eV     1   --> A_1  D_1  S_1  
     e( 16 - 16) =     13.47827  eV     1   --> B_2  D_4  S_4  

 **************************************************************************

 **************************************************************************

                    xk=(   0.00000,   0.00000,   0.00000  )

     point group D_6h(6/mmm)
     there are 12 classes
     the character table:

       E     2C6   2C3   C2    3C2'  3C2'' i     2S3   2S6   s_h   3s_d  3s_v 
A_1g   1.00  1.00  1.00  1.00  1.00  1.00  1.00  1.00  1.00  1.00  1.00  1.00
A_2g   1.00  1.00  1.00  1.00 -1.00 -1.00  1.00  1.00  1.00  1.00 -1.00 -1.00
B_1g   1.00 -1.00  1.00 -1.00  1.00 -1.00  1.00 -1.00  1.00 -1.00  1.00 -1.00
B_2g   1.00 -1.00  1.00 -1.00 -1.00  1.00  1.00 -1.00  1.00 -1.00 -1.00  1.00
E_1g   2.00  1.00 -1.00 -2.00  0.00  0.00  2.00  1.00 -1.00 -2.00  0.00  0.00
E_2g   2.00 -1.00 -1.00  2.00  0.00  0.00  2.00 -1.00 -1.00  2.00  0.00  0.00
A_1u   1.00  1.00  1.00  1.00  1.00  1.00 -1.00 -1.00 -1.00 -1.00 -1.00 -1.00
A_2u   1.00  1.00  1.00  1.00 -1.00 -1.00 -1.00 -1.00 -1.00 -1.00  1.00  1.00
B_1u   1.00 -1.00  1.00 -1.00  1.00 -1.00 -1.00  1.00 -1.00  1.00 -1.00  1.00
B_2u   1.00 -1.00  1.00 -1.00 -1.00  1.00 -1.00  1.00 -1.00  1.00  1.00 -1.00
E_1u   2.00  1.00 -1.00 -2.00  0.00  0.00 -2.00 -1.00  1.00  2.00  0.00  0.00
E_2u   2.00 -1.00 -1.00  2.00  0.00  0.00 -2.00  1.00  1.00 -2.00  0.00  0.00

     the symmetry operations in each class and the name of the first element:

     E        1
                                                                 
     2C6      5    6
                                                                 
     2C3      7    8
                                                                 
     C2       2
                                                                 
     3C2'     4   12   11
                                                                 
     3C2''    3    9   10
                                                                 
     i       13
                                                                 
     2S3     17   18
                                                                 
     2S6     19   20
                                                                 
     s_h     14
                                                                 
     3s_d    16   24   23
                                                                 
     3s_v    15   21   22
                                                                 

     Band symmetry, D_6h(6/mmm) point group:

     e(  1 -  1) =    -21.25896  eV     1   --> A_1g           
     e(  2 -  2) =     -9.35855  eV     1   --> A_2u           
     e(  3 -  4) =     -4.80112  eV     2   --> E_2g           
     e(  5 -  5) =      1.15754  eV     1   --> A_1g           
     e(  6 -  6) =      1.90001  eV     1   --> A_2u           
     e(  7 -  7) =      2.12592  eV     1   --> A_1g           
     e(  8 -  8) =      4.13946  eV     1   --> A_2u           
     e(  9 -  9) =      4.93682  eV     1   --> A_1g           
     e( 10 - 11) =      6.58769  eV     2   --> E_1u           
     e( 12 - 12) =      8.09699  eV     1   --> A_2u           
     e( 13 - 13) =      9.24287  eV     1   --> A_1g           
     e( 14 - 14) =      9.71874  eV     1   --> B_1g           
     e( 15 - 15) =     10.83734  eV     1   --> B_2u           
     e( 16 - 16) =     13.47014  eV     1   --> A_2u           

 **************************************************************************
 
     BANDS        :      2.18s CPU      3.72s WALL

 
   This run was terminated on:   5:46:23   1Feb2022            

=------------------------------------------------------------------------------=
   JOB DONE.
=------------------------------------------------------------------------------=
