
     Program PWSCF v.7.0 starts on  1Feb2022 at  5:46: 4 

     This program is part of the open-source Quantum ESPRESSO suite
     for quantum simulation of materials; please cite
         "P. Giannozzi et al., J. Phys.:Condens. Matter 21 395502 (2009);
         "P. Giannozzi et al., J. Phys.:Condens. Matter 29 465901 (2017);
         "P. Giannozzi et al., J. Chem. Phys. 152 154105 (2020);
          URL http://www.quantum-espresso.org", 
     in publications or presentations arising from this work. More details at
     http://www.quantum-espresso.org/quote

     Parallel version (MPI), running on     4 processors

     MPI processes distributed on     1 nodes
     R & G space division:  proc/nbgrp/npool/nimage =       4
     250637 MiB available memory on the printing compute node when the environment starts
 
     Waiting for input...
     Reading input from standard input

     Current dimensions of program PWSCF are:
     Max number of different atomic species (ntypx) = 10
     Max number of k-points (npk) =  40000
     Max angular momentum in pseudopotentials (lmaxx) =  4

     Atomic positions and unit cell read from directory:
     ../tmp/gr.save/
     Atomic positions from file used, from input discarded
 

     Subspace diagonalization in iterative solution of the eigenvalue problem:
     a serial algorithm will be used

 
     Parallelization info
     --------------------
     sticks:   dense  smooth     PW     G-vecs:    dense   smooth      PW
     Min          60      60     20                 4546     4546     852
     Max          61      61     22                 4565     4565     860
     Sum         241     241     85                18211    18211    3425
 
     Using Slab Decomposition
 


     bravais-lattice index     =            4
     lattice parameter (alat)  =       4.6561  a.u.
     unit-cell volume          =     532.1899 (a.u.)^3
     number of atoms/cell      =            2
     number of atomic types    =            1
     number of electrons       =         8.00
     number of Kohn-Sham states=           16
     kinetic-energy cutoff     =      40.0000  Ry
     charge density cutoff     =     160.0000  Ry
     Exchange-correlation= PBE
                           (   1   4   3   4   0   0   0)

     celldm(1)=   4.656107  celldm(2)=   0.000000  celldm(3)=   6.087896
     celldm(4)=   0.000000  celldm(5)=   0.000000  celldm(6)=   0.000000

     crystal axes: (cart. coord. in units of alat)
               a(1) = (   1.000000   0.000000   0.000000 )  
               a(2) = (  -0.500000   0.866025   0.000000 )  
               a(3) = (   0.000000   0.000000   6.087896 )  

     reciprocal axes: (cart. coord. in units 2 pi/alat)
               b(1) = (  1.000000  0.577350  0.000000 )  
               b(2) = (  0.000000  1.154701  0.000000 )  
               b(3) = (  0.000000  0.000000  0.164260 )  


     PseudoPot. # 1 for C  read from file:
     ../pseudo/C.pbe-n-rrkjus_psl.0.1.UPF
     MD5 check sum: 96a6a315177d77e6c95bf6fd3870f9e3
     Pseudo is Ultrasoft + core correction, Zval =  4.0
     Generated using &quot;atomic&quot; code by A. Dal Corso  v.6.3MaX
     Using radial grid of 1073 points,  4 beta functions with: 
                l(1) =   0
                l(2) =   0
                l(3) =   1
                l(4) =   1
     Q(r) pseudized with 0 coefficients 


     atomic species   valence    mass     pseudopotential
        C              4.00    12.01070     C ( 1.00)

     24 Sym. Ops., with inversion, found



   Cartesian axes

     site n.     atom                  positions (alat units)
         1           C   tau(   1) = (   0.0000000   0.5773503   3.0439478  )
         2           C   tau(   2) = (   0.5000000   0.2886751   3.0439478  )

     number of k points=    91  Marzari-Vanderbilt smearing, width (Ry)=  0.0200
                       cart. coord. in units 2pi/alat
        k(    1) = (   0.0000000   0.0000000   0.0000000), wk =   0.0219780
        k(    2) = (   0.0166667   0.0000000   0.0000000), wk =   0.0219780
        k(    3) = (   0.0333333   0.0000000   0.0000000), wk =   0.0219780
        k(    4) = (   0.0500000   0.0000000   0.0000000), wk =   0.0219780
        k(    5) = (   0.0666667   0.0000000   0.0000000), wk =   0.0219780
        k(    6) = (   0.0833333   0.0000000   0.0000000), wk =   0.0219780
        k(    7) = (   0.1000000   0.0000000   0.0000000), wk =   0.0219780
        k(    8) = (   0.1166667   0.0000000   0.0000000), wk =   0.0219780
        k(    9) = (   0.1333333   0.0000000   0.0000000), wk =   0.0219780
        k(   10) = (   0.1500000   0.0000000   0.0000000), wk =   0.0219780
        k(   11) = (   0.1666667   0.0000000   0.0000000), wk =   0.0219780
        k(   12) = (   0.1833333   0.0000000   0.0000000), wk =   0.0219780
        k(   13) = (   0.2000000   0.0000000   0.0000000), wk =   0.0219780
        k(   14) = (   0.2166667   0.0000000   0.0000000), wk =   0.0219780
        k(   15) = (   0.2333333   0.0000000   0.0000000), wk =   0.0219780
        k(   16) = (   0.2500000   0.0000000   0.0000000), wk =   0.0219780
        k(   17) = (   0.2666667   0.0000000   0.0000000), wk =   0.0219780
        k(   18) = (   0.2833333   0.0000000   0.0000000), wk =   0.0219780
        k(   19) = (   0.3000000   0.0000000   0.0000000), wk =   0.0219780
        k(   20) = (   0.3166667   0.0000000   0.0000000), wk =   0.0219780
        k(   21) = (   0.3333333   0.0000000   0.0000000), wk =   0.0219780
        k(   22) = (   0.3500000   0.0000000   0.0000000), wk =   0.0219780
        k(   23) = (   0.3666667   0.0000000   0.0000000), wk =   0.0219780
        k(   24) = (   0.3833333   0.0000000   0.0000000), wk =   0.0219780
        k(   25) = (   0.4000000   0.0000000   0.0000000), wk =   0.0219780
        k(   26) = (   0.4166667   0.0000000   0.0000000), wk =   0.0219780
        k(   27) = (   0.4333333   0.0000000   0.0000000), wk =   0.0219780
        k(   28) = (   0.4500000   0.0000000   0.0000000), wk =   0.0219780
        k(   29) = (   0.4666667   0.0000000   0.0000000), wk =   0.0219780
        k(   30) = (   0.4833333   0.0000000   0.0000000), wk =   0.0219780
        k(   31) = (   0.5000000   0.0000000   0.0000000), wk =   0.0219780
        k(   32) = (   0.5166667   0.0000000   0.0000000), wk =   0.0219780
        k(   33) = (   0.5333333   0.0000000   0.0000000), wk =   0.0219780
        k(   34) = (   0.5500000   0.0000000   0.0000000), wk =   0.0219780
        k(   35) = (   0.5666667   0.0000000   0.0000000), wk =   0.0219780
        k(   36) = (   0.5833333   0.0000000   0.0000000), wk =   0.0219780
        k(   37) = (   0.6000000   0.0000000   0.0000000), wk =   0.0219780
        k(   38) = (   0.6166667   0.0000000   0.0000000), wk =   0.0219780
        k(   39) = (   0.6333333   0.0000000   0.0000000), wk =   0.0219780
        k(   40) = (   0.6500000   0.0000000   0.0000000), wk =   0.0219780
        k(   41) = (   0.6666667   0.0000000   0.0000000), wk =   0.0219780
        k(   42) = (   0.6583333   0.0144338   0.0000000), wk =   0.0219780
        k(   43) = (   0.6500000   0.0288675   0.0000000), wk =   0.0219780
        k(   44) = (   0.6416667   0.0433013   0.0000000), wk =   0.0219780
        k(   45) = (   0.6333333   0.0577350   0.0000000), wk =   0.0219780
        k(   46) = (   0.6250000   0.0721688   0.0000000), wk =   0.0219780
        k(   47) = (   0.6166667   0.0866025   0.0000000), wk =   0.0219780
        k(   48) = (   0.6083333   0.1010363   0.0000000), wk =   0.0219780
        k(   49) = (   0.6000000   0.1154701   0.0000000), wk =   0.0219780
        k(   50) = (   0.5916667   0.1299038   0.0000000), wk =   0.0219780
        k(   51) = (   0.5833333   0.1443376   0.0000000), wk =   0.0219780
        k(   52) = (   0.5750000   0.1587713   0.0000000), wk =   0.0219780
        k(   53) = (   0.5666667   0.1732051   0.0000000), wk =   0.0219780
        k(   54) = (   0.5583333   0.1876388   0.0000000), wk =   0.0219780
        k(   55) = (   0.5500000   0.2020726   0.0000000), wk =   0.0219780
        k(   56) = (   0.5416667   0.2165064   0.0000000), wk =   0.0219780
        k(   57) = (   0.5333333   0.2309401   0.0000000), wk =   0.0219780
        k(   58) = (   0.5250000   0.2453739   0.0000000), wk =   0.0219780
        k(   59) = (   0.5166667   0.2598076   0.0000000), wk =   0.0219780
        k(   60) = (   0.5083333   0.2742414   0.0000000), wk =   0.0219780
        k(   61) = (   0.5000000   0.2886751   0.0000000), wk =   0.0219780
        k(   62) = (   0.4833333   0.2790526   0.0000000), wk =   0.0219780
        k(   63) = (   0.4666667   0.2694301   0.0000000), wk =   0.0219780
        k(   64) = (   0.4500000   0.2598076   0.0000000), wk =   0.0219780
        k(   65) = (   0.4333333   0.2501851   0.0000000), wk =   0.0219780
        k(   66) = (   0.4166667   0.2405626   0.0000000), wk =   0.0219780
        k(   67) = (   0.4000000   0.2309401   0.0000000), wk =   0.0219780
        k(   68) = (   0.3833333   0.2213176   0.0000000), wk =   0.0219780
        k(   69) = (   0.3666667   0.2116951   0.0000000), wk =   0.0219780
        k(   70) = (   0.3500000   0.2020726   0.0000000), wk =   0.0219780
        k(   71) = (   0.3333333   0.1924501   0.0000000), wk =   0.0219780
        k(   72) = (   0.3166667   0.1828276   0.0000000), wk =   0.0219780
        k(   73) = (   0.3000000   0.1732051   0.0000000), wk =   0.0219780
        k(   74) = (   0.2833333   0.1635826   0.0000000), wk =   0.0219780
        k(   75) = (   0.2666667   0.1539601   0.0000000), wk =   0.0219780
        k(   76) = (   0.2500000   0.1443376   0.0000000), wk =   0.0219780
        k(   77) = (   0.2333333   0.1347151   0.0000000), wk =   0.0219780
        k(   78) = (   0.2166667   0.1250926   0.0000000), wk =   0.0219780
        k(   79) = (   0.2000000   0.1154701   0.0000000), wk =   0.0219780
        k(   80) = (   0.1833333   0.1058475   0.0000000), wk =   0.0219780
        k(   81) = (   0.1666667   0.0962250   0.0000000), wk =   0.0219780
        k(   82) = (   0.1500000   0.0866025   0.0000000), wk =   0.0219780
        k(   83) = (   0.1333333   0.0769800   0.0000000), wk =   0.0219780
        k(   84) = (   0.1166667   0.0673575   0.0000000), wk =   0.0219780
        k(   85) = (   0.1000000   0.0577350   0.0000000), wk =   0.0219780
        k(   86) = (   0.0833333   0.0481125   0.0000000), wk =   0.0219780
        k(   87) = (   0.0666667   0.0384900   0.0000000), wk =   0.0219780
        k(   88) = (   0.0500000   0.0288675   0.0000000), wk =   0.0219780
        k(   89) = (   0.0333333   0.0192450   0.0000000), wk =   0.0219780
        k(   90) = (   0.0166667   0.0096225   0.0000000), wk =   0.0219780
        k(   91) = (   0.0000000   0.0000000   0.0000000), wk =   0.0219780

     Dense  grid:    18211 G-vectors     FFT dimensions: (  20,  20, 120)

     Estimated max dynamical RAM per process >       5.14 MB

     Estimated total dynamical RAM >      20.55 MB

     Check: negative core charge=   -0.000016

     The potential is recalculated from file :
     ../tmp/gr.save/charge-density


     negative rho (up, down):  4.226E-04 0.000E+00
     Starting wfcs are    8 randomized atomic wfcs +    8 random wfcs

     Band Structure Calculation
     Davidson diagonalization with overlap

     ethr =  1.25E-08,  avg # of iterations = 47.3

     total cpu time spent up to now is       13.5 secs

     End of band structure calculation

          k = 0.0000 0.0000 0.0000 (  2289 PWs)   bands (ev):

   -21.2590  -9.3586  -4.8011  -4.8011   1.1575   1.9000   2.1259   4.1395
     4.9368   6.5877   6.5877   8.0970   9.2429   9.7187  10.8373  13.4701

          k = 0.0167 0.0000 0.0000 (  2287 PWs)   bands (ev):

   -21.2540  -9.3527  -4.8216  -4.8120   1.1643   1.9068   2.1327   4.1462
     4.9434   6.5909   6.6093   8.1035   9.2497   9.7013  10.8458  13.4762

          k = 0.0333 0.0000 0.0000 (  2287 PWs)   bands (ev):

   -21.2393  -9.3350  -4.8824  -4.8446   1.1846   1.9272   2.1530   4.1663
     4.9633   6.6009   6.6732   8.1231   9.2701   9.6493  10.8715  13.4945

          k = 0.0500 0.0000 0.0000 (  2279 PWs)   bands (ev):

   -21.2147  -9.3055  -4.9818  -4.8986   1.2185   1.9612   2.1869   4.1998
     4.9964   6.6178   6.7769   8.1558   9.3041   9.5633  10.9151  13.5249

          k = 0.0667 0.0000 0.0000 (  2279 PWs)   bands (ev):

   -21.1802  -9.2643  -5.1170  -4.9736   1.2660   2.0088   2.2343   4.2467
     5.0428   6.6418   6.9164   8.2015   9.3516   9.4443  10.9778  13.5673

          k = 0.0833 0.0000 0.0000 (  2283 PWs)   bands (ev):

   -21.1360  -9.2113  -5.2849  -5.0688   1.3270   2.0700   2.2952   4.3070
     5.1025   6.6735   7.0864   8.2602   9.2936   9.4127  11.0612  13.6216

          k = 0.1000 0.0000 0.0000 (  2281 PWs)   bands (ev):

   -21.0820  -9.1466  -5.4816  -5.1835   1.4015   2.1448   2.3697   4.3807
     5.1754   6.7131   7.2810   8.3319   9.1130   9.4871  11.1672  13.6876

          k = 0.1167 0.0000 0.0000 (  2289 PWs)   bands (ev):

   -21.0181  -9.0704  -5.7033  -5.3168   1.4896   2.2332   2.4578   4.4677
     5.2616   6.7612   7.4932   8.4164   8.9043   9.5748  11.2985  13.7650

          k = 0.1333 0.0000 0.0000 (  2283 PWs)   bands (ev):

   -20.9445  -8.9825  -5.9461  -5.4676   1.5913   2.3351   2.5594   4.5680
     5.3612   6.8186   7.7163   8.5138   8.6698   9.6758  11.4577  13.8535

          k = 0.1500 0.0000 0.0000 (  2295 PWs)   bands (ev):

   -20.8612  -8.8831  -6.2065  -5.6347   1.7065   2.4506   2.6746   4.6817
     5.4740   6.8855   7.9435   8.4116   8.6239   9.7900  11.6474  13.9524

          k = 0.1667 0.0000 0.0000 (  2291 PWs)   bands (ev):

   -20.7681  -8.7723  -6.4812  -5.8168   1.8353   2.5797   2.8033   4.8086
     5.6002   6.9624   8.1322   8.1685   8.7467   9.9174  11.8700  14.0612

          k = 0.1833 0.0000 0.0000 (  2281 PWs)   bands (ev):

   -20.6654  -8.6502  -6.7673  -6.0126   1.9776   2.7222   2.9456   4.9487
     5.7396   7.0498   7.8339   8.3863   8.8819  10.0578  12.1268  14.1789

          k = 0.2000 0.0000 0.0000 (  2285 PWs)   bands (ev):

   -20.5530  -8.5169  -7.0621  -6.2209   2.1334   2.8783   3.1015   5.1019
     5.8924   7.1477   7.5191   8.5933   9.0294  10.2112  12.4178  14.3039

          k = 0.2167 0.0000 0.0000 (  2285 PWs)   bands (ev):

   -20.4310  -8.3725  -7.3634  -6.4402   2.3028   3.0478   3.2709   5.2682
     6.0585   7.1902   7.2565   8.7873   9.1890  10.3776  12.7419  14.4344

          k = 0.2333 0.0000 0.0000 (  2281 PWs)   bands (ev):

   -20.2995  -8.2171  -7.6691  -6.6693   2.4857   3.2308   3.4539   5.4476
     6.2378   6.8493   7.3765   8.9678   9.3603  10.5570  13.0963  14.5670

          k = 0.2500 0.0000 0.0000 (  2283 PWs)   bands (ev):

   -20.1584  -8.0510  -7.9776  -6.9067   2.6820   3.4272   3.6504   5.6398
     6.4304   6.4986   7.5076   9.1353   9.5429  10.7492  13.4775  14.6971

          k = 0.2667 0.0000 0.0000 (  2283 PWs)   bands (ev):

   -20.0080  -8.2874  -7.8742  -7.1512   2.8919   3.6369   3.8604   5.8448
     6.1400   6.6361   7.6497   9.2910   9.7363  10.9542  13.8807  14.8169

          k = 0.2833 0.0000 0.0000 (  2287 PWs)   bands (ev):

   -19.8482  -8.5971  -7.6871  -7.4016   3.1152   3.8600   4.0840   5.7754
     6.0624   6.8548   7.8029   9.4365   9.9398  11.1720  14.3007  14.9141

          k = 0.3000 0.0000 0.0000 (  2287 PWs)   bands (ev):

   -19.6791  -8.9057  -7.6567  -7.4898   3.3520   4.0962   4.3211   5.4065
     6.2925   7.0865   7.9672   9.5736  10.1523  11.4024  14.7321  14.9709

          k = 0.3167 0.0000 0.0000 (  2283 PWs)   bands (ev):

   -19.5008  -9.2122  -7.9152  -7.2826   3.6021   4.3456   4.5716   5.0349
     6.5346   7.3310   8.1425   9.7039  10.3723  11.6455  14.9651  15.1680

          k = 0.3333 0.0000 0.0000 (  2273 PWs)   bands (ev):

   -19.3134  -9.5159  -8.1761  -7.0658   3.8656   4.6081   4.6620   4.8357
     6.7886   7.5879   8.3284   9.8286  10.5977  11.9010  14.8811  15.6008

          k = 0.3500 0.0000 0.0000 (  2275 PWs)   bands (ev):

   -19.1171  -9.8159  -8.4385  -6.8397   4.1425   4.2891   4.8834   5.1131
     7.0539   7.8570   8.5250   9.9490  10.8252  12.1688  14.7241  16.0205

          k = 0.3667 0.0000 0.0000 (  2285 PWs)   bands (ev):

   -18.9119 -10.1117  -8.7012  -6.6047   3.9174   4.4326   5.1713   5.4040
     7.3299   8.1375   8.7323  10.0659  11.0496  12.4487  14.5203  16.4113

          k = 0.3833 0.0000 0.0000 (  2285 PWs)   bands (ev):

   -18.6981 -10.4027  -8.9635  -6.3613   3.5481   4.7359   5.4717   5.7083
     7.6157   8.4286   8.9508  10.1800  11.2629  12.7405  14.3038  16.7478

          k = 0.4000 0.0000 0.0000 (  2283 PWs)   bands (ev):

   -18.4757 -10.6885  -9.2244  -6.1098   3.1819   5.0523   5.7841   6.0259
     7.9101   8.7285   9.1811  10.2919  11.4525  13.0438  14.1082  16.9854

          k = 0.4167 0.0000 0.0000 (  2283 PWs)   bands (ev):

   -18.2450 -10.9688  -9.4831  -5.8508   2.8199   5.3818   6.1080   6.3567
     8.2111   9.0340   9.4254  10.4016  11.6009  13.3581  13.9665  17.0601

          k = 0.4333 0.0000 0.0000 (  2295 PWs)   bands (ev):

   -18.0063 -11.2430  -9.7387  -5.5850   2.4627   5.7242   6.4426   6.7008
     8.5158   9.3398   9.6877  10.5093  11.6895  13.6827  13.9088  16.9401

          k = 0.4500 0.0000 0.0000 (  2277 PWs)   bands (ev):

   -17.7597 -11.5110  -9.9906  -5.3130   2.1112   6.0793   6.7868   7.0579
     8.8198   9.6381   9.9746  10.6150  11.7116  13.9522  14.0166  16.6778

          k = 0.4667 0.0000 0.0000 (  2281 PWs)   bands (ev):

   -17.5058 -11.7724 -10.2379  -5.0356   1.7659   6.4469   7.1386   7.4281
     9.1157   9.9222  10.2903  10.7179  11.6843  14.0911  14.3581  16.3472

          k = 0.4833 0.0000 0.0000 (  2269 PWs)   bands (ev):

   -17.2448 -12.0270 -10.4798  -4.7536   1.4275   6.8268   7.4950   7.8111
     9.3923  10.1910  10.6337  10.8174  11.6444  14.3035  14.7044  15.9918

          k = 0.5000 0.0000 0.0000 (  2269 PWs)   bands (ev):

   -16.9774 -12.2747 -10.7156  -4.4680   1.0965   7.2186   7.8502   8.2067
     9.6344  10.4467  10.9126  10.9993  11.6359  14.5634  15.0481  15.6315

          k = 0.5167 0.0000 0.0000 (  2263 PWs)   bands (ev):

   -16.7042 -12.5152 -10.9442  -4.1801   0.7733   7.6217   8.1940   8.6147
     9.8296  10.6904  11.0021  11.3817  11.6987  14.8437  15.2758  15.2923

          k = 0.5333 0.0000 0.0000 (  2267 PWs)   bands (ev):

   -16.4260 -12.7484 -11.1648  -3.8908   0.4583   8.0355   8.5069   9.0346
     9.9864  10.9202  11.0840  11.7768  11.8548  14.9297  14.9968  15.0974

          k = 0.5500 0.0000 0.0000 (  2257 PWs)   bands (ev):

   -16.1439 -12.9741 -11.3759  -3.6017   0.1520   8.4586   8.7571   9.4658
    10.1480  11.1326  11.1560  12.0992  12.1805  14.5958  14.6592  14.9921

          k = 0.5667 0.0000 0.0000 (  2257 PWs)   bands (ev):

   -15.8596 -13.1922 -11.5761  -3.3142  -0.1452   8.8895   8.9130   9.9073
    10.3712  11.2151  11.3217  12.4098  12.5873  14.2761  14.3380  14.6347

          k = 0.5833 0.0000 0.0000 (  2259 PWs)   bands (ev):

   -15.5751 -13.4026 -11.7631  -3.0301  -0.4332   8.9750   9.3251  10.3573
    10.6793  11.2577  11.4804  12.7619  12.9872  13.9713  14.0385  14.2905

          k = 0.6000 0.0000 0.0000 (  2251 PWs)   bands (ev):

   -15.2937 -13.6053 -11.9339  -2.7509  -0.7116   8.9753   9.7604  10.8120
    11.0565  11.2798  11.6027  13.1294  13.3496  13.6820  13.7756  13.9593

          k = 0.6167 0.0000 0.0000 (  2249 PWs)   bands (ev):

   -15.0201 -13.8001 -12.0839  -2.4788  -0.9800   8.9475  10.1862  11.2573
    11.2775  11.4789  11.6933  13.4078  13.4281  13.4586  13.6413  13.7565

          k = 0.6333 0.0000 0.0000 (  2247 PWs)   bands (ev):

   -14.7616 -13.9869 -12.2060  -2.2156  -1.2384   8.9140  10.5835  11.2478
    11.5791  11.8623  11.9274  13.1476  13.2117  13.3365  13.5825  13.9227

          k = 0.6500 0.0000 0.0000 (  2259 PWs)   bands (ev):

   -14.5289 -14.1658 -12.2898  -1.9634  -1.4865   8.8884  10.9131  11.1895
    11.6311  12.2622  12.3812  12.9001  12.9898  13.0451  13.4630  13.9856

          k = 0.6667 0.0000 0.0000 (  2259 PWs)   bands (ev):

   -14.3366 -14.3366 -12.3213  -1.7241  -1.7241   8.8786  11.1040  11.1040
    11.6316  12.6637  12.6637  12.7670  12.7670  12.8153  13.3524  14.0466

          k = 0.6583 0.0144 0.0000 (  2261 PWs)   bands (ev):

   -14.4993 -14.2000 -12.2855  -1.9510  -1.4995   8.8896  10.9951  11.1164
    11.6126  12.4372  12.5024  12.5464  12.8215  13.1665  13.5698  13.9612

          k = 0.6500 0.0289 0.0000 (  2248 PWs)   bands (ev):

   -14.6538 -14.1272 -12.1750  -2.1670  -1.2911   8.9239  10.8682  11.0154
    11.4997  12.2201  12.2511  12.3373  12.6583  13.6218  13.8955  13.9943

          k = 0.6417 0.0433 0.0000 (  2248 PWs)   bands (ev):

   -14.8001 -14.1128 -11.9961  -2.3721  -1.1004   8.9823  10.7292  10.8594
    11.2763  12.0121  12.0134  12.1237  12.4675  13.8401  14.0979  14.1615

          k = 0.6333 0.0577 0.0000 (  2248 PWs)   bands (ev):

   -14.9383 -14.1418 -11.7647  -2.5661  -0.9280   9.0641  10.5834  10.6568
    10.9886  11.7891  11.8137  11.9149  12.2822  13.7864  13.9397  14.2829

          k = 0.6250 0.0722 0.0000 (  2248 PWs)   bands (ev):

   -15.0681 -14.1983 -11.4978  -2.7488  -0.7745   9.1669  10.3703  10.4353
    10.7184  11.5783  11.6251  11.7165  12.1108  13.7281  13.7312  14.1649

          k = 0.6167 0.0866 0.0000 (  2252 PWs)   bands (ev):

   -15.1897 -14.2704 -11.2088  -2.9202  -0.6397   9.2864   9.9870  10.2885
    10.5093  11.3810  11.4468  11.5304  11.9580  13.5360  13.6620  14.0293

          k = 0.6083 0.1010 0.0000 (  2250 PWs)   bands (ev):

   -15.3030 -14.3499 -10.9073  -3.0801  -0.5230   9.4164   9.5553  10.1458
    10.3349  11.1973  11.2795  11.3568  11.8273  13.3542  13.5879  13.8935

          k = 0.6000 0.1155 0.0000 (  2252 PWs)   bands (ev):

   -15.4079 -14.4316 -10.6004  -3.2285  -0.4236   9.1068   9.5487  10.0091
    10.1784  11.0272  11.1234  11.1957  11.7224  13.1857  13.5076  13.7617

          k = 0.5917 0.1299 0.0000 (  2252 PWs)   bands (ev):

   -15.5045 -14.5122 -10.2937  -3.3653  -0.3400   8.6579   9.6736   9.8801
    10.0351  10.8706  10.9788  11.0471  11.6467  13.0306  13.4238  13.6365

          k = 0.5833 0.1443 0.0000 (  2254 PWs)   bands (ev):

   -15.5928 -14.5893  -9.9917  -3.4904  -0.2709   8.2182   9.7599   9.7813
     9.9039  10.7276  10.8462  10.9111  11.6024  12.8890  13.3396  13.5192

          k = 0.5750 0.1588 0.0000 (  2264 PWs)   bands (ev):

   -15.6726 -14.6617  -9.6990  -3.6038  -0.2145   7.7951   9.6495   9.7847
     9.8641  10.5982  10.7256  10.7878  11.5888  12.7608  13.2576  13.4110

          k = 0.5667 0.1732 0.0000 (  2264 PWs)   bands (ev):

   -15.7441 -14.7281  -9.4196  -3.7054  -0.1692   7.3955   9.5494   9.6776
     9.9191  10.4824  10.6174  10.6771  11.6007  12.6461  13.1800  13.3128

          k = 0.5583 0.1876 0.0000 (  2272 PWs)   bands (ev):

   -15.8072 -14.7879  -9.1580  -3.7952  -0.1335   7.0249   9.4602   9.5826
     9.9484  10.3803  10.5216  10.5793  11.6291  12.5448  13.1086  13.2250

          k = 0.5500 0.2021 0.0000 (  2272 PWs)   bands (ev):

   -15.8619 -14.8405  -8.9185  -3.8730  -0.1057   6.6892   9.3822   9.5000
     9.9580  10.2917  10.4384  10.4944  11.6640  12.4570  13.0447  13.1482

          k = 0.5417 0.2165 0.0000 (  2278 PWs)   bands (ev):

   -15.9082 -14.8855  -8.7056  -3.9390  -0.0845   6.3935   9.3158   9.4299
     9.9549  10.2167  10.3678  10.4224  11.6974  12.3827  12.9893  13.0828

          k = 0.5333 0.2309 0.0000 (  2282 PWs)   bands (ev):

   -15.9461 -14.9227  -8.5237  -3.9930  -0.0688   6.1431   9.2613   9.3723
     9.9452  10.1554  10.3100  10.3635  11.7250  12.3219  12.9430  13.0289

          k = 0.5250 0.2454 0.0000 (  2274 PWs)   bands (ev):

   -15.9756 -14.9518  -8.3770  -4.0350  -0.0576   5.9427   9.2186   9.3275
     9.9335  10.1077  10.2649  10.3176  11.7454  12.2746  12.9066  12.9868

          k = 0.5167 0.2598 0.0000 (  2278 PWs)   bands (ev):

   -15.9967 -14.9727  -8.2692  -4.0650  -0.0502   5.7963   9.1881   9.2954
     9.9231  10.0736  10.2327  10.2848  11.7589  12.2409  12.8803  12.9566

          k = 0.5083 0.2742 0.0000 (  2266 PWs)   bands (ev):

   -16.0093 -14.9852  -8.2033  -4.0831  -0.0459   5.7070   9.1698   9.2762
     9.9161  10.0532  10.2134  10.2651  11.7665  12.2206  12.8644  12.9385

          k = 0.5000 0.2887 0.0000 (  2260 PWs)   bands (ev):

   -16.0135 -14.9894  -8.1811  -4.0891  -0.0445   5.6771   9.1637   9.2698
     9.9137  10.0463  10.2070  10.2586  11.7689  12.2138  12.8591  12.9324

          k = 0.4833 0.2791 0.0000 (  2276 PWs)   bands (ev):

   -16.1268 -14.8664  -8.1746  -4.1322   0.0088   5.6803   8.6978   9.4612
     9.6869   9.7686  10.5050  10.7756  11.4717  12.3898  12.5184  13.4127

          k = 0.4667 0.2694 0.0000 (  2268 PWs)   bands (ev):

   -16.3771 -14.5868  -8.1550  -4.2549   0.1624   5.6900   8.1974   8.9616
     9.1944  10.2928  10.8907  11.1756  11.3334  11.8992  12.9587  13.9353

          k = 0.4500 0.2598 0.0000 (  2278 PWs)   bands (ev):

   -16.6714 -14.2438  -8.1224  -4.4414   0.3999   5.7060   7.7118   8.4753
     8.7025  10.5283  10.8422  11.4207  11.6297  11.9097  13.3429  14.3033

          k = 0.4333 0.2502 0.0000 (  2278 PWs)   bands (ev):

   -16.9763 -13.8711  -8.0769  -4.6732   0.7027   5.7279   7.2425   8.0044
     8.2278  10.0895  10.9525  11.4053  12.1620  12.4973  13.4691  14.3632

          k = 0.4167 0.2406 0.0000 (  2282 PWs)   bands (ev):

   -17.2800 -13.4806  -8.0187  -4.9344   1.0542   5.7544   6.7909   7.5497
     7.7706   9.6569  10.5076  11.9593  12.6307  13.0987  13.3553  14.6758

          k = 0.4000 0.2309 0.0000 (  2290 PWs)   bands (ev):

   -17.5779 -13.0773  -7.9480  -5.2128   1.4417   5.7824   6.3601   7.1118
     7.3314   9.2364  10.0770  12.5033  12.7150  13.5263  13.7109  14.2680

          k = 0.3833 0.2213 0.0000 (  2284 PWs)   bands (ev):

   -17.8675 -12.6640  -7.8650  -5.4997   1.8556   5.7792   5.9822   6.6910
     6.9109   8.8299   9.6626  12.4565  13.0162  13.8698  14.0056  14.3365

          k = 0.3667 0.2117 0.0000 (  2274 PWs)   bands (ev):

   -18.1476 -12.2426  -7.7700  -5.7889   2.2887   5.4995   5.8998   6.2878
     6.5117   8.4386   9.2651  12.1373  13.4165  13.5429  14.5129  14.9649

          k = 0.3500 0.2021 0.0000 (  2268 PWs)   bands (ev):

   -18.4173 -11.8146  -7.6634  -6.0761   2.7353   5.1252   5.9024   5.9110
     6.1533   8.0631   8.8848  11.8095  13.1084  13.8378  14.9716  15.0549

          k = 0.3333 0.1925 0.0000 (  2272 PWs)   bands (ev):

   -18.6760 -11.3811  -7.5456  -6.3582   3.1902   4.7605   5.5357   5.7110
     6.0361   7.7040   8.5219  11.4855  12.7575  14.0514  14.4995  15.3196

          k = 0.3167 0.1828 0.0000 (  2270 PWs)   bands (ev):

   -18.9235 -10.9435  -7.4173  -6.6327   3.6482   4.4115   5.1896   5.3759
     6.0771   7.3616   8.1766  11.1703  12.4208  13.9338  14.1164  15.4998

          k = 0.3000 0.1732 0.0000 (  2268 PWs)   bands (ev):

   -19.1593 -10.5031  -7.2789  -6.8981   4.0795   4.0968   4.8727   5.0466
     6.1332   7.0365   7.8494  10.8664  12.0999  13.3637  14.0545  15.5170

          k = 0.2833 0.1636 0.0000 (  2268 PWs)   bands (ev):

   -19.3832 -10.0613  -7.1530  -7.1314   3.7649   4.3970   4.7207   4.7327
     6.1928   6.7294   7.5409  10.5756  11.7953  12.7937  13.9017  15.4284

          k = 0.2667 0.1540 0.0000 (  2276 PWs)   bands (ev):

   -19.5951  -9.6195  -7.3963  -6.9754   3.4679   4.1954   4.4360   5.0826
     6.2523   6.4423   7.2520  10.2989  11.5075  12.2280  13.6899  15.2846

          k = 0.2500 0.1443 0.0000 (  2278 PWs)   bands (ev):

   -19.7947  -9.1796  -7.6274  -6.8120   3.1887   3.9280   4.1567   5.5108
     6.1839   6.3069   6.9858  10.0371  11.2364  11.6707  13.4420  15.1151

          k = 0.2333 0.1347 0.0000 (  2282 PWs)   bands (ev):

   -19.9819  -8.7435  -7.8454  -6.6424   2.9273   3.6703   3.8953   5.7898
     6.0918   6.3446   6.7527   9.7907  10.9823  11.1250  13.1741  14.9357

          k = 0.2167 0.1251 0.0000 (  2268 PWs)   bands (ev):

   -20.1567  -8.3132  -8.0500  -6.4678   2.6838   3.4282   3.6518   5.6276
     6.3177   6.4491   6.5988   9.5602  10.5945  10.7453  12.8975  14.7556

          k = 0.2000 0.1155 0.0000 (  2272 PWs)   bands (ev):

   -20.3188  -8.2406  -7.8914  -6.2900   2.4582   3.2031   3.4262   5.4162
     6.1745   6.5738   6.8596   9.3459  10.0822  10.5255  12.6208  14.5802

          k = 0.1833 0.1058 0.0000 (  2276 PWs)   bands (ev):

   -20.4683  -8.4170  -7.4806  -6.1107   2.2506   2.9955   3.2185   5.2153
     5.9925   6.5988   7.2604   9.1482   9.5911  10.3227  12.3510  14.4129

          k = 0.1667 0.0962 0.0000 (  2280 PWs)   bands (ev):

   -20.6050  -8.5788  -7.0842  -5.9320   2.0610   2.8058   3.0289   5.0300
     5.8145   6.6290   7.6432   8.9672   9.1248  10.1372  12.0937  14.2561

          k = 0.1500 0.0866 0.0000 (  2276 PWs)   bands (ev):

   -20.7289  -8.7259  -6.7054  -5.7562   1.8894   2.6339   2.8574   4.8616
     5.6499   6.6539   8.0033   8.6864   8.8034   9.9689  11.8539  14.1114

          k = 0.1333 0.0770 0.0000 (  2276 PWs)   bands (ev):

   -20.8399  -8.8579  -6.3482  -5.5860   1.7358   2.4800   2.7038   4.7105
     5.5012   6.6698   8.2794   8.3359   8.6581   9.8179  11.6356  13.9799

          k = 0.1167 0.0674 0.0000 (  2276 PWs)   bands (ev):

   -20.9380  -8.9747  -6.0168  -5.4243   1.6003   2.3442   2.5684   4.5769
     5.3693   6.6755   7.9073   8.5160   8.6532   9.6841  11.4420  13.8624

          k = 0.1000 0.0577 0.0000 (  2282 PWs)   bands (ev):

   -21.0230  -9.0762  -5.7158  -5.2744   1.4828   2.2264   2.4510   4.4610
     5.2547   6.6713   7.5737   8.4093   8.9197   9.5677  11.2753  13.7595

          k = 0.0833 0.0481 0.0000 (  2286 PWs)   bands (ev):

   -21.0951  -9.1623  -5.4499  -5.1395   1.3834   2.1267   2.3516   4.3628
     5.1576   6.6590   7.2828   8.3144   9.1561   9.4689  11.1365  13.6718

          k = 0.0667 0.0385 0.0000 (  2282 PWs)   bands (ev):

   -21.1540  -9.2329  -5.2240  -5.0232   1.3021   2.0451   2.2704   4.2825
     5.0781   6.6412   7.0383   8.2363   9.3546   9.3878  11.0255  13.5996

          k = 0.0500 0.0289 0.0000 (  2279 PWs)   bands (ev):

   -21.1999  -9.2878  -5.0425  -4.9285   1.2389   1.9816   2.2072   4.2199
     5.0163   6.6217   6.8439   8.1754   9.3245   9.5121  10.9415  13.5431

          k = 0.0333 0.0192 0.0000 (  2285 PWs)   bands (ev):

   -21.2327  -9.3271  -4.9096  -4.8586   1.1937   1.9363   2.1620   4.1752
     4.9721   6.6040   6.7024   8.1319   9.2792   9.6263  10.8830  13.5026

          k = 0.0167 0.0096 0.0000 (  2291 PWs)   bands (ev):

   -21.2524  -9.3507  -4.8284  -4.8157   1.1666   1.9091   2.1349   4.1484
     4.9457   6.5919   6.6165   8.1057   9.2520   9.6955  10.8486  13.4783

          k = 0.0000 0.0000 0.0000 (  2289 PWs)   bands (ev):

   -21.2590  -9.3586  -4.8011  -4.8011   1.1575   1.9000   2.1259   4.1395
     4.9368   6.5877   6.5877   8.0970   9.2429   9.7187  10.8373  13.4701

     Writing all to output data dir ../tmp/gr.save/
 
     init_run     :      0.06s CPU      0.12s WALL (       1 calls)
     electrons    :     10.13s CPU     13.22s WALL (       1 calls)

     Called by init_run:
     wfcinit      :      0.00s CPU      0.00s WALL (       1 calls)
     potinit      :      0.00s CPU      0.00s WALL (       1 calls)
     hinit0       :      0.04s CPU      0.09s WALL (       1 calls)

     Called by electrons:
     c_bands      :     10.13s CPU     13.22s WALL (       1 calls)
     v_of_rho     :      0.00s CPU      0.00s WALL (       1 calls)
     newd         :      0.00s CPU      0.00s WALL (       1 calls)

     Called by c_bands:
     init_us_2    :      0.00s CPU      0.00s WALL (      91 calls)
     init_us_2:cp :      0.00s CPU      0.00s WALL (      91 calls)
     cegterg      :      9.82s CPU     12.81s WALL (     252 calls)

     Called by *egterg:
     cdiaghg      :      0.74s CPU      0.94s WALL (    4391 calls)
     h_psi        :      8.17s CPU     10.67s WALL (    4643 calls)
     s_psi        :      0.07s CPU      0.09s WALL (    4643 calls)
     g_psi        :      0.04s CPU      0.05s WALL (    4300 calls)

     Called by h_psi:
     h_psi:calbec :      0.19s CPU      0.25s WALL (    4643 calls)
     vloc_psi     :      7.89s CPU     10.30s WALL (    4643 calls)
     add_vuspsi   :      0.07s CPU      0.10s WALL (    4643 calls)

     General routines
     calbec       :      0.19s CPU      0.25s WALL (    4643 calls)
     fft          :      0.02s CPU      0.07s WALL (      12 calls)
     fftw         :      7.55s CPU      9.86s WALL (   90760 calls)
     davcio       :      0.01s CPU      0.01s WALL (     182 calls)
 
     Parallel routines
 
     PWSCF        :     10.32s CPU     13.57s WALL

 
   This run was terminated on:   5:46:18   1Feb2022            

=------------------------------------------------------------------------------=
   JOB DONE.
=------------------------------------------------------------------------------=
