
     Program PWSCF v.7.0 starts on  1Feb2022 at  5:44:27 

     This program is part of the open-source Quantum ESPRESSO suite
     for quantum simulation of materials; please cite
         "P. Giannozzi et al., J. Phys.:Condens. Matter 21 395502 (2009);
         "P. Giannozzi et al., J. Phys.:Condens. Matter 29 465901 (2017);
         "P. Giannozzi et al., J. Chem. Phys. 152 154105 (2020);
          URL http://www.quantum-espresso.org", 
     in publications or presentations arising from this work. More details at
     http://www.quantum-espresso.org/quote

     Parallel version (MPI), running on     4 processors

     MPI processes distributed on     1 nodes
     R & G space division:  proc/nbgrp/npool/nimage =       4
     250640 MiB available memory on the printing compute node when the environment starts
 
     Waiting for input...
     Reading input from standard input

     Current dimensions of program PWSCF are:
     Max number of different atomic species (ntypx) = 10
     Max number of k-points (npk) =  40000
     Max angular momentum in pseudopotentials (lmaxx) =  4

     Subspace diagonalization in iterative solution of the eigenvalue problem:
     a serial algorithm will be used

 
     Parallelization info
     --------------------
     sticks:   dense  smooth     PW     G-vecs:    dense   smooth      PW
     Min          60      60     21                 3036     3036     569
     Max          61      61     22                 3049     3049     575
     Sum         241     241     85                12161    12161    2287
 
     Using Slab Decomposition
 


     bravais-lattice index     =            4
     lattice parameter (alat)  =       4.6531  a.u.
     unit-cell volume          =     354.3310 (a.u.)^3
     number of atoms/cell      =            2
     number of atomic types    =            1
     number of electrons       =         8.00
     number of Kohn-Sham states=            8
     kinetic-energy cutoff     =      40.0000  Ry
     charge density cutoff     =     160.0000  Ry
     scf convergence threshold =      1.0E-06
     mixing beta               =       0.7000
     number of iterations used =            8  plain     mixing
     Exchange-correlation= PBE
                           (   1   4   3   4   0   0   0)

     celldm(1)=   4.653073  celldm(2)=   0.000000  celldm(3)=   4.061244
     celldm(4)=   0.000000  celldm(5)=   0.000000  celldm(6)=   0.000000

     crystal axes: (cart. coord. in units of alat)
               a(1) = (   1.000000   0.000000   0.000000 )  
               a(2) = (  -0.500000   0.866025   0.000000 )  
               a(3) = (   0.000000   0.000000   4.061244 )  

     reciprocal axes: (cart. coord. in units 2 pi/alat)
               b(1) = (  1.000000  0.577350  0.000000 )  
               b(2) = (  0.000000  1.154701  0.000000 )  
               b(3) = (  0.000000  0.000000  0.246230 )  


     PseudoPot. # 1 for C  read from file:
     ../pseudo/C.pbe-n-rrkjus_psl.0.1.UPF
     MD5 check sum: 96a6a315177d77e6c95bf6fd3870f9e3
     Pseudo is Ultrasoft + core correction, Zval =  4.0
     Generated using &quot;atomic&quot; code by A. Dal Corso  v.6.3MaX
     Using radial grid of 1073 points,  4 beta functions with: 
                l(1) =   0
                l(2) =   0
                l(3) =   1
                l(4) =   1
     Q(r) pseudized with 0 coefficients 


     atomic species   valence    mass     pseudopotential
        C              4.00    12.01070     C ( 1.00)

     24 Sym. Ops., with inversion, found



   Cartesian axes

     site n.     atom                  positions (alat units)
         1           C   tau(   1) = (   0.0000000   0.5773503   2.0306218  )
         2           C   tau(   2) = (   0.5000000   0.2886751   2.0306218  )

     number of k points=    19  Marzari-Vanderbilt smearing, width (Ry)=  0.0200
                       cart. coord. in units 2pi/alat
        k(    1) = (   0.0000000   0.0000000   0.0000000), wk =   0.0138889
        k(    2) = (   0.0000000   0.0962250   0.0000000), wk =   0.0833333
        k(    3) = (   0.0000000   0.1924501   0.0000000), wk =   0.0833333
        k(    4) = (   0.0000000   0.2886751   0.0000000), wk =   0.0833333
        k(    5) = (   0.0000000   0.3849002   0.0000000), wk =   0.0833333
        k(    6) = (   0.0000000   0.4811252   0.0000000), wk =   0.0833333
        k(    7) = (   0.0000000  -0.5773503   0.0000000), wk =   0.0416667
        k(    8) = (   0.0833333   0.1443376   0.0000000), wk =   0.0833333
        k(    9) = (   0.0833333   0.2405626   0.0000000), wk =   0.1666667
        k(   10) = (   0.0833333   0.3367877   0.0000000), wk =   0.1666667
        k(   11) = (   0.0833333   0.4330127   0.0000000), wk =   0.1666667
        k(   12) = (   0.0833333   0.5292377   0.0000000), wk =   0.1666667
        k(   13) = (   0.1666667   0.2886751   0.0000000), wk =   0.0833333
        k(   14) = (   0.1666667   0.3849002   0.0000000), wk =   0.1666667
        k(   15) = (   0.1666667   0.4811252   0.0000000), wk =   0.1666667
        k(   16) = (   0.1666667   0.5773503   0.0000000), wk =   0.0833333
        k(   17) = (   0.2500000   0.4330127   0.0000000), wk =   0.0833333
        k(   18) = (   0.2500000   0.5292377   0.0000000), wk =   0.1666667
        k(   19) = (   0.3333333   0.5773503   0.0000000), wk =   0.0277778

     Dense  grid:    12161 G-vectors     FFT dimensions: (  20,  20,  80)

     Estimated max dynamical RAM per process >       5.22 MB

     Estimated total dynamical RAM >      20.86 MB

     Check: negative core charge=   -0.000021

     Initial potential from superposition of free atoms

     starting charge       7.9999, renormalised to       8.0000

     negative rho (up, down):  1.518E-05 0.000E+00
     Starting wfcs are    8 randomized atomic wfcs

     total cpu time spent up to now is        0.2 secs

     Self-consistent Calculation

     iteration #  1     ecut=    40.00 Ry     beta= 0.70
     Davidson diagonalization with overlap
     ethr =  1.00E-02,  avg # of iterations =  7.7

     negative rho (up, down):  1.000E-06 0.000E+00

     total cpu time spent up to now is        0.4 secs

     total energy              =     -23.85661637 Ry
     estimated scf accuracy    <       0.11858150 Ry

     iteration #  2     ecut=    40.00 Ry     beta= 0.70
     Davidson diagonalization with overlap
     ethr =  1.48E-03,  avg # of iterations =  4.9

     negative rho (up, down):  1.551E-04 0.000E+00

     total cpu time spent up to now is        0.5 secs

     total energy              =     -23.89672549 Ry
     estimated scf accuracy    <       0.01332237 Ry

     iteration #  3     ecut=    40.00 Ry     beta= 0.70
     Davidson diagonalization with overlap
     c_bands:  1 eigenvalues not converged
     ethr =  1.67E-04,  avg # of iterations = 15.3

     negative rho (up, down):  1.259E-04 0.000E+00

     total cpu time spent up to now is        0.7 secs

     total energy              =     -23.90849859 Ry
     estimated scf accuracy    <       0.00427994 Ry

     iteration #  4     ecut=    40.00 Ry     beta= 0.70
     Davidson diagonalization with overlap
     ethr =  5.35E-05,  avg # of iterations =  3.9

     negative rho (up, down):  2.379E-04 0.000E+00

     total cpu time spent up to now is        0.9 secs

     total energy              =     -23.90866404 Ry
     estimated scf accuracy    <       0.00082221 Ry

     iteration #  5     ecut=    40.00 Ry     beta= 0.70
     Davidson diagonalization with overlap
     c_bands:  1 eigenvalues not converged
     ethr =  1.03E-05,  avg # of iterations =  7.9

     negative rho (up, down):  2.095E-04 0.000E+00

     total cpu time spent up to now is        1.0 secs

     total energy              =     -23.90903637 Ry
     estimated scf accuracy    <       0.00038864 Ry

     iteration #  6     ecut=    40.00 Ry     beta= 0.70
     Davidson diagonalization with overlap
     ethr =  4.86E-06,  avg # of iterations =  2.9

     negative rho (up, down):  2.012E-04 0.000E+00

     total cpu time spent up to now is        1.1 secs

     total energy              =     -23.90909174 Ry
     estimated scf accuracy    <       0.00001331 Ry

     iteration #  7     ecut=    40.00 Ry     beta= 0.70
     Davidson diagonalization with overlap
     ethr =  1.66E-07,  avg # of iterations =  5.7

     negative rho (up, down):  2.035E-04 0.000E+00

     total cpu time spent up to now is        1.3 secs

     total energy              =     -23.90913285 Ry
     estimated scf accuracy    <       0.00000144 Ry

     iteration #  8     ecut=    40.00 Ry     beta= 0.70
     Davidson diagonalization with overlap
     ethr =  1.80E-08,  avg # of iterations =  3.7

     negative rho (up, down):  2.047E-04 0.000E+00

     total cpu time spent up to now is        1.4 secs

     End of self-consistent calculation

          k = 0.0000 0.0000 0.0000 (  1527 PWs)   bands (ev):

   -19.9978  -8.0963  -3.5224  -3.5224   2.3058   3.9946   4.8875   7.8778

          k = 0.0000 0.0962 0.0000 (  1532 PWs)   bands (ev):

   -19.8337  -7.8998  -4.1717  -3.8616   2.5316   4.2176   5.1074   7.9556

          k = 0.0000 0.1925 0.0000 (  1520 PWs)   bands (ev):

   -19.3430  -7.3153  -5.8076  -4.6556   3.2087   4.8835   5.7678   7.9129

          k = 0.0000 0.2887 0.0000 (  1520 PWs)   bands (ev):

   -18.5316  -7.9053  -6.3622  -5.5373   4.3360   5.9547   6.8518   6.8700

          k = 0.0000 0.3849 0.0000 (  1514 PWs)   bands (ev):

   -17.4116 -10.1093  -6.2722  -5.0908   4.4748   5.9082   7.2862   7.5694

          k = 0.0000 0.4811 0.0000 (  1512 PWs)   bands (ev):

   -16.0135 -12.2116  -6.7461  -3.6643   2.3334   7.0495   7.9400   9.5203

          k = 0.0000-0.5774 0.0000 (  1508 PWs)   bands (ev):

   -14.7431 -13.7247  -6.9088  -2.8171   1.2319   6.9732  10.3192  10.4196

          k = 0.0833 0.1443 0.0000 (  1523 PWs)   bands (ev):

   -19.5063  -7.5092  -5.2038  -4.5402   2.9832   4.6625   5.5487   8.2494

          k = 0.0833 0.2406 0.0000 (  1515 PWs)   bands (ev):

   -18.8553  -6.9123  -6.7392  -5.5398   3.8859   5.5452   6.4317   7.6737

          k = 0.0833 0.3368 0.0000 (  1514 PWs)   bands (ev):

   -17.8894  -8.9856  -6.4274  -5.6205   5.2370   5.4910   6.8979   7.7150

          k = 0.0833 0.4330 0.0000 (  1521 PWs)   bands (ev):

   -16.6274 -11.1099  -7.0632  -4.2373   3.2839   7.0271   7.8798   8.6256

          k = 0.0833 0.5292 0.0000 (  1513 PWs)   bands (ev):

   -15.1443 -13.0549  -7.3922  -2.9242   1.5095   7.7099   9.2656  10.7122

          k = 0.1667 0.2887 0.0000 (  1509 PWs)   bands (ev):

   -18.0498  -8.2409  -6.9040  -5.7997   5.0129   5.9499   6.6394   7.5358

          k = 0.1667 0.3849 0.0000 (  1514 PWs)   bands (ev):

   -16.9406  -9.9688  -7.9611  -4.5435   3.9961   6.5849   8.1348   9.0584

          k = 0.1667 0.4811 0.0000 (  1515 PWs)   bands (ev):

   -15.5625 -11.8822  -8.5368  -3.1129   2.0780   8.5874   9.6073   9.9221

          k = 0.1667 0.5774 0.0000 (  1500 PWs)   bands (ev):

   -14.3220 -13.3234  -8.7216  -2.2174   1.0063   9.5165  10.9237  11.0615

          k = 0.2500 0.4330 0.0000 (  1511 PWs)   bands (ev):

   -15.7107 -11.0017  -9.4481  -3.1973   2.3774   8.3672   9.6073  10.7859

          k = 0.2500 0.5292 0.0000 (  1497 PWs)   bands (ev):

   -14.2853 -12.4261 -10.1557  -1.8077   0.8529  10.4211  10.5361  11.7656

          k = 0.3333 0.5774 0.0000 (  1485 PWs)   bands (ev):

   -13.0650 -13.0650 -11.0582  -0.4481  -0.4481  10.1582  12.3436  12.3446

     the Fermi energy is    -0.4102 ev

!    total energy              =     -23.90913362 Ry
     estimated scf accuracy    <          7.1E-09 Ry
     smearing contrib. (-TS)   =      -0.00018232 Ry
     internal energy E=F+TS    =     -23.90895130 Ry

     The total energy is F=E-TS. E is the sum of the following terms:
     one-electron contribution =     -90.80013369 Ry
     hartree contribution      =      47.23432635 Ry
     xc contribution           =      -8.30619321 Ry
     ewald contribution        =      27.96304925 Ry

     convergence has been achieved in   8 iterations

     Writing all to output data dir ../tmp/gr.save/
 
     init_run     :      0.07s CPU      0.14s WALL (       1 calls)
     electrons    :      0.87s CPU      1.23s WALL (       1 calls)

     Called by init_run:
     wfcinit      :      0.03s CPU      0.03s WALL (       1 calls)
     potinit      :      0.00s CPU      0.01s WALL (       1 calls)
     hinit0       :      0.04s CPU      0.09s WALL (       1 calls)

     Called by electrons:
     c_bands      :      0.76s CPU      1.08s WALL (       8 calls)
     sum_band     :      0.09s CPU      0.13s WALL (       8 calls)
     v_of_rho     :      0.01s CPU      0.02s WALL (       9 calls)
     newd         :      0.00s CPU      0.01s WALL (       9 calls)
     mix_rho      :      0.00s CPU      0.00s WALL (       8 calls)

     Called by c_bands:
     init_us_2    :      0.01s CPU      0.01s WALL (     323 calls)
     init_us_2:cp :      0.01s CPU      0.01s WALL (     323 calls)
     cegterg      :      0.74s CPU      1.05s WALL (     152 calls)

     Called by *egterg:
     cdiaghg      :      0.06s CPU      0.08s WALL (    1141 calls)
     h_psi        :      0.62s CPU      0.88s WALL (    1160 calls)
     s_psi        :      0.01s CPU      0.01s WALL (    1160 calls)
     g_psi        :      0.00s CPU      0.00s WALL (     989 calls)

     Called by h_psi:
     h_psi:calbec :      0.03s CPU      0.04s WALL (    1160 calls)
     vloc_psi     :      0.59s CPU      0.82s WALL (    1160 calls)
     add_vuspsi   :      0.01s CPU      0.01s WALL (    1160 calls)

     General routines
     calbec       :      0.03s CPU      0.04s WALL (    1312 calls)
     fft          :      0.02s CPU      0.08s WALL (      99 calls)
     ffts         :      0.00s CPU      0.00s WALL (       8 calls)
     fftw         :      0.63s CPU      0.89s WALL (   11172 calls)
 
     Parallel routines
 
     PWSCF        :      0.99s CPU      1.43s WALL

 
   This run was terminated on:   5:44:29   1Feb2022            

=------------------------------------------------------------------------------=
   JOB DONE.
=------------------------------------------------------------------------------=
