
     Program PWSCF v.7.0 starts on  1Feb2022 at  5:44:16 

     This program is part of the open-source Quantum ESPRESSO suite
     for quantum simulation of materials; please cite
         "P. Giannozzi et al., J. Phys.:Condens. Matter 21 395502 (2009);
         "P. Giannozzi et al., J. Phys.:Condens. Matter 29 465901 (2017);
         "P. Giannozzi et al., J. Chem. Phys. 152 154105 (2020);
          URL http://www.quantum-espresso.org", 
     in publications or presentations arising from this work. More details at
     http://www.quantum-espresso.org/quote

     Parallel version (MPI), running on     4 processors

     MPI processes distributed on     1 nodes
     R & G space division:  proc/nbgrp/npool/nimage =       4
     250638 MiB available memory on the printing compute node when the environment starts
 
     Waiting for input...
     Reading input from standard input

     Current dimensions of program PWSCF are:
     Max number of different atomic species (ntypx) = 10
     Max number of k-points (npk) =  40000
     Max angular momentum in pseudopotentials (lmaxx) =  4

     Subspace diagonalization in iterative solution of the eigenvalue problem:
     a serial algorithm will be used

 
     Parallelization info
     --------------------
     sticks:   dense  smooth     PW     G-vecs:    dense   smooth      PW
     Min          60      60     21                 3036     3036     569
     Max          61      61     22                 3049     3049     575
     Sum         241     241     85                12161    12161    2287
 
     Using Slab Decomposition
 


     bravais-lattice index     =            4
     lattice parameter (alat)  =       4.6531  a.u.
     unit-cell volume          =     354.3310 (a.u.)^3
     number of atoms/cell      =            2
     number of atomic types    =            1
     number of electrons       =         8.00
     number of Kohn-Sham states=            8
     kinetic-energy cutoff     =      40.0000  Ry
     charge density cutoff     =     160.0000  Ry
     scf convergence threshold =      1.0E-06
     mixing beta               =       0.7000
     number of iterations used =            8  plain     mixing
     Exchange-correlation= PBE
                           (   1   4   3   4   0   0   0)

     celldm(1)=   4.653073  celldm(2)=   0.000000  celldm(3)=   4.061244
     celldm(4)=   0.000000  celldm(5)=   0.000000  celldm(6)=   0.000000

     crystal axes: (cart. coord. in units of alat)
               a(1) = (   1.000000   0.000000   0.000000 )  
               a(2) = (  -0.500000   0.866025   0.000000 )  
               a(3) = (   0.000000   0.000000   4.061244 )  

     reciprocal axes: (cart. coord. in units 2 pi/alat)
               b(1) = (  1.000000  0.577350  0.000000 )  
               b(2) = (  0.000000  1.154701  0.000000 )  
               b(3) = (  0.000000  0.000000  0.246230 )  


     PseudoPot. # 1 for C  read from file:
     ../pseudo/C.pbe-n-rrkjus_psl.0.1.UPF
     MD5 check sum: 96a6a315177d77e6c95bf6fd3870f9e3
     Pseudo is Ultrasoft + core correction, Zval =  4.0
     Generated using &quot;atomic&quot; code by A. Dal Corso  v.6.3MaX
     Using radial grid of 1073 points,  4 beta functions with: 
                l(1) =   0
                l(2) =   0
                l(3) =   1
                l(4) =   1
     Q(r) pseudized with 0 coefficients 


     atomic species   valence    mass     pseudopotential
        C              4.00    12.01070     C ( 1.00)

     24 Sym. Ops., with inversion, found



   Cartesian axes

     site n.     atom                  positions (alat units)
         1           C   tau(   1) = (   0.0000000   0.5773503   2.0306218  )
         2           C   tau(   2) = (   0.5000000   0.2886751   2.0306218  )

     number of k points=     7  Marzari-Vanderbilt smearing, width (Ry)=  0.0200
                       cart. coord. in units 2pi/alat
        k(    1) = (   0.0000000   0.0000000   0.0000000), wk =   0.0555556
        k(    2) = (   0.0000000   0.1924501   0.0000000), wk =   0.3333333
        k(    3) = (   0.0000000   0.3849002   0.0000000), wk =   0.3333333
        k(    4) = (   0.0000000  -0.5773503   0.0000000), wk =   0.1666667
        k(    5) = (   0.1666667   0.2886751   0.0000000), wk =   0.3333333
        k(    6) = (   0.1666667   0.4811252   0.0000000), wk =   0.6666667
        k(    7) = (   0.3333333   0.5773503   0.0000000), wk =   0.1111111

     Dense  grid:    12161 G-vectors     FFT dimensions: (  20,  20,  80)

     Estimated max dynamical RAM per process >       4.66 MB

     Estimated total dynamical RAM >      18.65 MB

     Check: negative core charge=   -0.000021

     Initial potential from superposition of free atoms

     starting charge       7.9999, renormalised to       8.0000

     negative rho (up, down):  1.518E-05 0.000E+00
     Starting wfcs are    8 randomized atomic wfcs

     total cpu time spent up to now is        0.2 secs

     Self-consistent Calculation

     iteration #  1     ecut=    40.00 Ry     beta= 0.70
     Davidson diagonalization with overlap
     ethr =  1.00E-02,  avg # of iterations =  8.0

     negative rho (up, down):  9.379E-06 0.000E+00

     total cpu time spent up to now is        0.2 secs

     total energy              =     -23.86131096 Ry
     estimated scf accuracy    <       0.13032980 Ry

     iteration #  2     ecut=    40.00 Ry     beta= 0.70
     Davidson diagonalization with overlap
     ethr =  1.63E-03,  avg # of iterations =  4.0

     negative rho (up, down):  1.270E-04 0.000E+00

     total cpu time spent up to now is        0.3 secs

     total energy              =     -23.89460547 Ry
     estimated scf accuracy    <       0.01073280 Ry

     iteration #  3     ecut=    40.00 Ry     beta= 0.70
     Davidson diagonalization with overlap
     c_bands:  2 eigenvalues not converged
     ethr =  1.34E-04,  avg # of iterations = 16.1

     negative rho (up, down):  1.271E-04 0.000E+00

     total cpu time spent up to now is        0.4 secs

     total energy              =     -23.90748910 Ry
     estimated scf accuracy    <       0.00316650 Ry

     iteration #  4     ecut=    40.00 Ry     beta= 0.70
     Davidson diagonalization with overlap
     ethr =  3.96E-05,  avg # of iterations =  2.6

     negative rho (up, down):  1.539E-04 0.000E+00

     total cpu time spent up to now is        0.4 secs

     total energy              =     -23.90703260 Ry
     estimated scf accuracy    <       0.00463316 Ry

     iteration #  5     ecut=    40.00 Ry     beta= 0.70
     Davidson diagonalization with overlap
     ethr =  3.96E-05,  avg # of iterations =  1.6

     negative rho (up, down):  1.707E-04 0.000E+00

     total cpu time spent up to now is        0.5 secs

     total energy              =     -23.90586832 Ry
     estimated scf accuracy    <       0.00276614 Ry

     iteration #  6     ecut=    40.00 Ry     beta= 0.70
     Davidson diagonalization with overlap
     ethr =  3.46E-05,  avg # of iterations =  1.4

     negative rho (up, down):  1.606E-04 0.000E+00

     total cpu time spent up to now is        0.5 secs

     total energy              =     -23.90621400 Ry
     estimated scf accuracy    <       0.00058432 Ry

     iteration #  7     ecut=    40.00 Ry     beta= 0.70
     Davidson diagonalization with overlap
     ethr =  7.30E-06,  avg # of iterations =  7.0

     negative rho (up, down):  1.623E-04 0.000E+00

     total cpu time spent up to now is        0.5 secs

     total energy              =     -23.90623372 Ry
     estimated scf accuracy    <       0.00085490 Ry

     iteration #  8     ecut=    40.00 Ry     beta= 0.70
     Davidson diagonalization with overlap
     ethr =  7.30E-06,  avg # of iterations =  1.3

     negative rho (up, down):  1.656E-04 0.000E+00

     total cpu time spent up to now is        0.6 secs

     total energy              =     -23.90623966 Ry
     estimated scf accuracy    <       0.00072500 Ry

     iteration #  9     ecut=    40.00 Ry     beta= 0.70
     Davidson diagonalization with overlap
     ethr =  7.30E-06,  avg # of iterations =  1.0

     negative rho (up, down):  2.158E-04 0.000E+00

     total cpu time spent up to now is        0.6 secs

     total energy              =     -23.90588292 Ry
     estimated scf accuracy    <       0.00067508 Ry

     iteration # 10     ecut=    40.00 Ry     beta= 0.70
     Davidson diagonalization with overlap
     ethr =  7.30E-06,  avg # of iterations =  2.0

     negative rho (up, down):  2.170E-04 0.000E+00

     total cpu time spent up to now is        0.6 secs

     total energy              =     -23.90594383 Ry
     estimated scf accuracy    <       0.00002512 Ry

     iteration # 11     ecut=    40.00 Ry     beta= 0.70
     Davidson diagonalization with overlap
     ethr =  3.14E-07,  avg # of iterations =  6.6

     negative rho (up, down):  2.208E-04 0.000E+00

     total cpu time spent up to now is        0.7 secs

     total energy              =     -23.90600232 Ry
     estimated scf accuracy    <       0.00000796 Ry

     iteration # 12     ecut=    40.00 Ry     beta= 0.70
     Davidson diagonalization with overlap
     ethr =  9.95E-08,  avg # of iterations =  2.9

     negative rho (up, down):  2.157E-04 0.000E+00

     total cpu time spent up to now is        0.7 secs

     total energy              =     -23.90600341 Ry
     estimated scf accuracy    <       0.00001359 Ry

     iteration # 13     ecut=    40.00 Ry     beta= 0.70
     Davidson diagonalization with overlap
     ethr =  9.95E-08,  avg # of iterations =  1.0

     negative rho (up, down):  2.157E-04 0.000E+00

     total cpu time spent up to now is        0.8 secs

     total energy              =     -23.90599875 Ry
     estimated scf accuracy    <       0.00001400 Ry

     iteration # 14     ecut=    40.00 Ry     beta= 0.70
     Davidson diagonalization with overlap
     ethr =  9.95E-08,  avg # of iterations =  1.0

     negative rho (up, down):  2.145E-04 0.000E+00

     total cpu time spent up to now is        0.8 secs

     total energy              =     -23.90600194 Ry
     estimated scf accuracy    <       0.00000710 Ry

     iteration # 15     ecut=    40.00 Ry     beta= 0.70
     Davidson diagonalization with overlap
     ethr =  8.87E-08,  avg # of iterations =  1.1

     negative rho (up, down):  2.083E-04 0.000E+00

     total cpu time spent up to now is        0.8 secs

     total energy              =     -23.90600632 Ry
     estimated scf accuracy    <       0.00001073 Ry

     iteration # 16     ecut=    40.00 Ry     beta= 0.70
     Davidson diagonalization with overlap
     ethr =  8.87E-08,  avg # of iterations =  1.3

     negative rho (up, down):  2.055E-04 0.000E+00

     total cpu time spent up to now is        0.9 secs

     total energy              =     -23.90599676 Ry
     estimated scf accuracy    <       0.00001772 Ry

     iteration # 17     ecut=    40.00 Ry     beta= 0.70
     Davidson diagonalization with overlap
     ethr =  8.87E-08,  avg # of iterations =  1.3

     negative rho (up, down):  2.040E-04 0.000E+00

     total cpu time spent up to now is        0.9 secs

     total energy              =     -23.90599701 Ry
     estimated scf accuracy    <       0.00000154 Ry

     iteration # 18     ecut=    40.00 Ry     beta= 0.70
     Davidson diagonalization with overlap
     ethr =  1.92E-08,  avg # of iterations =  2.4

     negative rho (up, down):  2.046E-04 0.000E+00

     total cpu time spent up to now is        1.0 secs

     End of self-consistent calculation

          k = 0.0000 0.0000 0.0000 (  1527 PWs)   bands (ev):

   -19.9937  -8.0935  -3.5175  -3.5175   2.3055   3.9944   4.8868   7.8822

          k = 0.0000 0.1925 0.0000 (  1520 PWs)   bands (ev):

   -19.3389  -7.3124  -5.8029  -4.6508   3.2084   4.8833   5.7675   7.9132

          k = 0.0000 0.3849 0.0000 (  1514 PWs)   bands (ev):

   -17.4074 -10.1049  -6.2675  -5.0878   4.4781   5.9079   7.2901   7.5687

          k = 0.0000-0.5774 0.0000 (  1508 PWs)   bands (ev):

   -14.7388 -13.7205  -6.9041  -2.8138   1.2348   6.9769  10.3193  10.4186

          k = 0.1667 0.2887 0.0000 (  1509 PWs)   bands (ev):

   -18.0456  -8.2363  -6.8994  -5.7967   5.0126   5.9535   6.6391   7.5350

          k = 0.1667 0.4811 0.0000 (  1515 PWs)   bands (ev):

   -15.5583 -11.8778  -8.5323  -3.1097   2.0813   8.5873   9.6108   9.9215

          k = 0.3333 0.5774 0.0000 (  1485 PWs)   bands (ev):

   -13.0607 -13.0607 -11.0540  -0.4448  -0.4448  10.1586  12.3452  12.3463

     the Fermi energy is    -0.4069 ev

!    total energy              =     -23.90599780 Ry
     estimated scf accuracy    <       0.00000004 Ry
     smearing contrib. (-TS)   =      -0.00072930 Ry
     internal energy E=F+TS    =     -23.90526851 Ry

     The total energy is F=E-TS. E is the sum of the following terms:
     one-electron contribution =     -90.79809104 Ry
     hartree contribution      =      47.23639030 Ry
     xc contribution           =      -8.30661701 Ry
     ewald contribution        =      27.96304925 Ry

     convergence has been achieved in  18 iterations

     Writing all to output data dir ../tmp/gr.save/
 
     init_run     :      0.05s CPU      0.12s WALL (       1 calls)
     electrons    :      0.59s CPU      0.79s WALL (       1 calls)

     Called by init_run:
     wfcinit      :      0.01s CPU      0.01s WALL (       1 calls)
     potinit      :      0.00s CPU      0.01s WALL (       1 calls)
     hinit0       :      0.04s CPU      0.09s WALL (       1 calls)

     Called by electrons:
     c_bands      :      0.45s CPU      0.62s WALL (      18 calls)
     sum_band     :      0.09s CPU      0.12s WALL (      18 calls)
     v_of_rho     :      0.03s CPU      0.04s WALL (      19 calls)
     newd         :      0.01s CPU      0.01s WALL (      19 calls)
     mix_rho      :      0.01s CPU      0.01s WALL (      18 calls)

     Called by c_bands:
     init_us_2    :      0.01s CPU      0.01s WALL (     259 calls)
     init_us_2:cp :      0.01s CPU      0.01s WALL (     259 calls)
     cegterg      :      0.44s CPU      0.59s WALL (     126 calls)

     Called by *egterg:
     cdiaghg      :      0.03s CPU      0.04s WALL (     564 calls)
     h_psi        :      0.37s CPU      0.51s WALL (     571 calls)
     s_psi        :      0.00s CPU      0.01s WALL (     571 calls)
     g_psi        :      0.00s CPU      0.00s WALL (     438 calls)

     Called by h_psi:
     h_psi:calbec :      0.01s CPU      0.02s WALL (     571 calls)
     vloc_psi     :      0.35s CPU      0.48s WALL (     571 calls)
     add_vuspsi   :      0.00s CPU      0.01s WALL (     571 calls)

     General routines
     calbec       :      0.02s CPU      0.02s WALL (     697 calls)
     fft          :      0.03s CPU      0.09s WALL (     209 calls)
     ffts         :      0.00s CPU      0.00s WALL (      18 calls)
     fftw         :      0.39s CPU      0.54s WALL (    6816 calls)
 
     Parallel routines
 
     PWSCF        :      0.68s CPU      0.96s WALL

 
   This run was terminated on:   5:44:17   1Feb2022            

=------------------------------------------------------------------------------=
   JOB DONE.
=------------------------------------------------------------------------------=
