
     Program PWSCF v.7.0 starts on  1Feb2022 at  5:44:30 

     This program is part of the open-source Quantum ESPRESSO suite
     for quantum simulation of materials; please cite
         "P. Giannozzi et al., J. Phys.:Condens. Matter 21 395502 (2009);
         "P. Giannozzi et al., J. Phys.:Condens. Matter 29 465901 (2017);
         "P. Giannozzi et al., J. Chem. Phys. 152 154105 (2020);
          URL http://www.quantum-espresso.org", 
     in publications or presentations arising from this work. More details at
     http://www.quantum-espresso.org/quote

     Parallel version (MPI), running on     4 processors

     MPI processes distributed on     1 nodes
     R & G space division:  proc/nbgrp/npool/nimage =       4
     250643 MiB available memory on the printing compute node when the environment starts
 
     Waiting for input...
     Reading input from standard input

     Current dimensions of program PWSCF are:
     Max number of different atomic species (ntypx) = 10
     Max number of k-points (npk) =  40000
     Max angular momentum in pseudopotentials (lmaxx) =  4

     Subspace diagonalization in iterative solution of the eigenvalue problem:
     a serial algorithm will be used

 
     Parallelization info
     --------------------
     sticks:   dense  smooth     PW     G-vecs:    dense   smooth      PW
     Min          60      60     20                 3036     3036     550
     Max          61      61     22                 3049     3049     552
     Sum         241     241     85                12161    12161    2203
 
     Using Slab Decomposition
 


     bravais-lattice index     =            4
     lattice parameter (alat)  =       4.6531  a.u.
     unit-cell volume          =     354.3310 (a.u.)^3
     number of atoms/cell      =            2
     number of atomic types    =            1
     number of electrons       =         8.00
     number of Kohn-Sham states=            8
     kinetic-energy cutoff     =      40.0000  Ry
     charge density cutoff     =     160.0000  Ry
     scf convergence threshold =      1.0E-06
     mixing beta               =       0.7000
     number of iterations used =            8  plain     mixing
     Exchange-correlation= PBE
                           (   1   4   3   4   0   0   0)

     celldm(1)=   4.653073  celldm(2)=   0.000000  celldm(3)=   4.061244
     celldm(4)=   0.000000  celldm(5)=   0.000000  celldm(6)=   0.000000

     crystal axes: (cart. coord. in units of alat)
               a(1) = (   1.000000   0.000000   0.000000 )  
               a(2) = (  -0.500000   0.866025   0.000000 )  
               a(3) = (   0.000000   0.000000   4.061244 )  

     reciprocal axes: (cart. coord. in units 2 pi/alat)
               b(1) = (  1.000000  0.577350  0.000000 )  
               b(2) = (  0.000000  1.154701  0.000000 )  
               b(3) = (  0.000000  0.000000  0.246230 )  


     PseudoPot. # 1 for C  read from file:
     ../pseudo/C.pbe-n-rrkjus_psl.0.1.UPF
     MD5 check sum: 96a6a315177d77e6c95bf6fd3870f9e3
     Pseudo is Ultrasoft + core correction, Zval =  4.0
     Generated using &quot;atomic&quot; code by A. Dal Corso  v.6.3MaX
     Using radial grid of 1073 points,  4 beta functions with: 
                l(1) =   0
                l(2) =   0
                l(3) =   1
                l(4) =   1
     Q(r) pseudized with 0 coefficients 


     atomic species   valence    mass     pseudopotential
        C              4.00    12.01070     C ( 1.00)

     24 Sym. Ops., with inversion, found



   Cartesian axes

     site n.     atom                  positions (alat units)
         1           C   tau(   1) = (   0.0000000   0.5773503   2.0306218  )
         2           C   tau(   2) = (   0.5000000   0.2886751   2.0306218  )

     number of k points=    21  Marzari-Vanderbilt smearing, width (Ry)=  0.0200
                       cart. coord. in units 2pi/alat
        k(    1) = (   0.0000000   0.0000000   0.0000000), wk =   0.0118343
        k(    2) = (   0.0000000   0.0888231   0.0000000), wk =   0.0710059
        k(    3) = (   0.0000000   0.1776462   0.0000000), wk =   0.0710059
        k(    4) = (   0.0000000   0.2664694   0.0000000), wk =   0.0710059
        k(    5) = (   0.0000000   0.3552925   0.0000000), wk =   0.0710059
        k(    6) = (   0.0000000   0.4441156   0.0000000), wk =   0.0710059
        k(    7) = (   0.0000000   0.5329387   0.0000000), wk =   0.0710059
        k(    8) = (   0.0769231   0.1332347   0.0000000), wk =   0.0710059
        k(    9) = (   0.0769231   0.2220578   0.0000000), wk =   0.1420118
        k(   10) = (   0.0769231   0.3108809   0.0000000), wk =   0.1420118
        k(   11) = (   0.0769231   0.3997040   0.0000000), wk =   0.1420118
        k(   12) = (   0.0769231   0.4885272   0.0000000), wk =   0.1420118
        k(   13) = (   0.0769231   0.5773503   0.0000000), wk =   0.0710059
        k(   14) = (   0.1538462   0.2664694   0.0000000), wk =   0.0710059
        k(   15) = (   0.1538462   0.3552925   0.0000000), wk =   0.1420118
        k(   16) = (   0.1538462   0.4441156   0.0000000), wk =   0.1420118
        k(   17) = (   0.1538462   0.5329387   0.0000000), wk =   0.1420118
        k(   18) = (   0.2307692   0.3997040   0.0000000), wk =   0.0710059
        k(   19) = (   0.2307692   0.4885272   0.0000000), wk =   0.1420118
        k(   20) = (   0.2307692   0.5773503   0.0000000), wk =   0.0710059
        k(   21) = (   0.3076923   0.5329387   0.0000000), wk =   0.0710059

     Dense  grid:    12161 G-vectors     FFT dimensions: (  20,  20,  80)

     Estimated max dynamical RAM per process >       5.30 MB

     Estimated total dynamical RAM >      21.18 MB

     Check: negative core charge=   -0.000021

     Initial potential from superposition of free atoms

     starting charge       7.9999, renormalised to       8.0000

     negative rho (up, down):  1.518E-05 0.000E+00
     Starting wfcs are    8 randomized atomic wfcs

     total cpu time spent up to now is        0.2 secs

     Self-consistent Calculation

     iteration #  1     ecut=    40.00 Ry     beta= 0.70
     Davidson diagonalization with overlap
     ethr =  1.00E-02,  avg # of iterations =  7.4

     negative rho (up, down):  2.237E-06 0.000E+00

     total cpu time spent up to now is        0.4 secs

     WARNING: integrated charge=     8.00001213, expected=     8.00000000

     total energy              =     -23.85836386 Ry
     estimated scf accuracy    <       0.11093341 Ry

     iteration #  2     ecut=    40.00 Ry     beta= 0.70
     Davidson diagonalization with overlap
     ethr =  1.39E-03,  avg # of iterations =  5.4

     negative rho (up, down):  1.875E-04 0.000E+00

     total cpu time spent up to now is        0.5 secs

     WARNING: integrated charge=     8.00001002, expected=     8.00000000

     total energy              =     -23.89947093 Ry
     estimated scf accuracy    <       0.01540134 Ry

     iteration #  3     ecut=    40.00 Ry     beta= 0.70
     Davidson diagonalization with overlap
     ethr =  1.93E-04,  avg # of iterations = 14.0

     negative rho (up, down):  1.400E-04 0.000E+00

     total cpu time spent up to now is        0.8 secs

     WARNING: integrated charge=     8.00001206, expected=     8.00000000

     total energy              =     -23.90894856 Ry
     estimated scf accuracy    <       0.00581590 Ry

     iteration #  4     ecut=    40.00 Ry     beta= 0.70
     Davidson diagonalization with overlap
     ethr =  7.27E-05,  avg # of iterations =  2.6

     negative rho (up, down):  2.366E-04 0.000E+00

     total cpu time spent up to now is        0.9 secs

     WARNING: integrated charge=     8.00001853, expected=     8.00000000

     total energy              =     -23.90897931 Ry
     estimated scf accuracy    <       0.00094048 Ry

     iteration #  5     ecut=    40.00 Ry     beta= 0.70
     Davidson diagonalization with overlap
     ethr =  1.18E-05,  avg # of iterations = 10.9

     negative rho (up, down):  2.117E-04 0.000E+00

     total cpu time spent up to now is        1.1 secs

     WARNING: integrated charge=     8.00001738, expected=     8.00000000

     total energy              =     -23.90954024 Ry
     estimated scf accuracy    <       0.00046305 Ry

     iteration #  6     ecut=    40.00 Ry     beta= 0.70
     Davidson diagonalization with overlap
     ethr =  5.79E-06,  avg # of iterations =  2.1

     negative rho (up, down):  1.993E-04 0.000E+00

     total cpu time spent up to now is        1.2 secs

     WARNING: integrated charge=     8.00001778, expected=     8.00000000

     total energy              =     -23.90958912 Ry
     estimated scf accuracy    <       0.00001927 Ry

     iteration #  7     ecut=    40.00 Ry     beta= 0.70
     Davidson diagonalization with overlap
     ethr =  2.41E-07,  avg # of iterations =  6.6

     negative rho (up, down):  2.022E-04 0.000E+00

     total cpu time spent up to now is        1.4 secs

     WARNING: integrated charge=     8.00001776, expected=     8.00000000

     total energy              =     -23.90963826 Ry
     estimated scf accuracy    <       0.00001038 Ry

     iteration #  8     ecut=    40.00 Ry     beta= 0.70
     Davidson diagonalization with overlap
     ethr =  1.30E-07,  avg # of iterations =  1.8

     negative rho (up, down):  2.049E-04 0.000E+00

     total cpu time spent up to now is        1.5 secs

     End of self-consistent calculation

          k = 0.0000 0.0000 0.0000 (  1527 PWs)   bands (ev):

   -19.9917  -8.0920  -3.5154  -3.5154   2.3049   3.9939   4.8868   7.8844

          k = 0.0000 0.0888 0.0000 (  1528 PWs)   bands (ev):

   -19.8518  -7.9244  -4.0728  -3.8073   2.4973   4.1840   5.0743   7.9540

          k = 0.0000 0.1776 0.0000 (  1512 PWs)   bands (ev):

   -19.4335  -7.4255  -5.5072  -4.5127   3.0743   4.7520   5.6373   7.9397

          k = 0.0000 0.2665 0.0000 (  1532 PWs)   bands (ev):

   -18.7408  -7.3953  -6.6087  -5.3338   4.0353   5.6832   6.5687   7.3684

          k = 0.0000 0.3553 0.0000 (  1518 PWs)   bands (ev):

   -17.7818  -9.4275  -6.0633  -5.5058   5.1876   5.3772   7.0565   7.3608

          k = 0.0000 0.4441 0.0000 (  1510 PWs)   bands (ev):

   -16.5737 -11.4196  -6.5920  -4.2038   3.1088   7.0268   7.2136   8.7209

          k = 0.0000 0.5329 0.0000 (  1512 PWs)   bands (ev):

   -15.1908 -13.2124  -6.8671  -3.0302   1.5092   6.9960   9.1952  10.7232

          k = 0.0769 0.1332 0.0000 (  1523 PWs)   bands (ev):

   -19.5727  -7.5911  -4.9843  -4.3915   2.8820   4.5631   5.4504   8.1959

          k = 0.0769 0.2221 0.0000 (  1517 PWs)   bands (ev):

   -19.0172  -6.9326  -6.5154  -5.2878   3.6514   5.3168   6.2026   8.0993

          k = 0.0769 0.3109 0.0000 (  1516 PWs)   bands (ev):

   -18.1913  -8.4041  -6.1362  -5.9693   4.8035   6.0729   6.5257   7.3149

          k = 0.0769 0.3997 0.0000 (  1516 PWs)   bands (ev):

   -17.1069 -10.3850  -6.7974  -4.7514   4.0537   6.3337   7.8578   7.9583

          k = 0.0769 0.4885 0.0000 (  1515 PWs)   bands (ev):

   -15.7947 -12.2806  -7.2121  -3.4363   2.1597   7.6557   8.2561   9.7811

          k = 0.0769 0.5774 0.0000 (  1508 PWs)   bands (ev):

   -14.6470 -13.6294  -7.3530  -2.6842   1.2034   7.5939  10.4497  10.5560

          k = 0.1538 0.2665 0.0000 (  1513 PWs)   bands (ev):

   -18.3285  -7.7654  -6.4959  -6.1254   4.6122   6.2524   6.5296   7.1442

          k = 0.1538 0.3553 0.0000 (  1515 PWs)   bands (ev):

   -17.3768  -9.3716  -7.5095  -5.0345   4.7132   5.9538   7.5456   8.4502

          k = 0.1538 0.4441 0.0000 (  1508 PWs)   bands (ev):

   -16.1813 -11.1769  -8.1431  -3.7382   2.8478   7.6687   9.1472   9.3433

          k = 0.1538 0.5329 0.0000 (  1512 PWs)   bands (ev):

   -14.8205 -12.8856  -8.4502  -2.5353   1.3304   9.2075   9.7533  10.8352

          k = 0.2308 0.3997 0.0000 (  1513 PWs)   bands (ev):

   -16.3126 -10.4127  -8.8872  -3.8473   3.1588   7.4794   8.9121   9.9375

          k = 0.2308 0.4885 0.0000 (  1497 PWs)   bands (ev):

   -15.0363 -11.8077  -9.6698  -2.5229   1.6000   9.3618  10.2174  11.3115

          k = 0.2308 0.5774 0.0000 (  1500 PWs)   bands (ev):

   -13.9304 -13.0083  -9.8886  -1.6668   0.6615  10.6067  11.2237  11.4434

          k = 0.3077 0.5329 0.0000 (  1493 PWs)   bands (ev):

   -13.7643 -12.5070 -10.8026  -1.2201   0.3224  10.2394  11.3254  12.5613

     the Fermi energy is    -0.2696 ev

     WARNING: integrated charge=     8.00001776, expected=     8.00000000

!    total energy              =     -23.90963897 Ry
     estimated scf accuracy    <       0.00000078 Ry
     smearing contrib. (-TS)   =       0.00000027 Ry
     internal energy E=F+TS    =     -23.90963924 Ry

     The total energy is F=E-TS. E is the sum of the following terms:
     one-electron contribution =     -90.79704906 Ry
     hartree contribution      =      47.22993652 Ry
     xc contribution           =      -8.30557595 Ry
     ewald contribution        =      27.96304925 Ry

     convergence has been achieved in   8 iterations

     Writing all to output data dir ../tmp/gr.save/
 
     init_run     :      0.07s CPU      0.13s WALL (       1 calls)
     electrons    :      0.94s CPU      1.32s WALL (       1 calls)

     Called by init_run:
     wfcinit      :      0.02s CPU      0.03s WALL (       1 calls)
     potinit      :      0.00s CPU      0.01s WALL (       1 calls)
     hinit0       :      0.03s CPU      0.08s WALL (       1 calls)

     Called by electrons:
     c_bands      :      0.83s CPU      1.15s WALL (       8 calls)
     sum_band     :      0.09s CPU      0.14s WALL (       8 calls)
     v_of_rho     :      0.01s CPU      0.02s WALL (       9 calls)
     newd         :      0.01s CPU      0.01s WALL (       9 calls)
     mix_rho      :      0.00s CPU      0.00s WALL (       8 calls)

     Called by c_bands:
     init_us_2    :      0.01s CPU      0.01s WALL (     357 calls)
     init_us_2:cp :      0.01s CPU      0.01s WALL (     357 calls)
     cegterg      :      0.81s CPU      1.12s WALL (     168 calls)

     Called by *egterg:
     cdiaghg      :      0.06s CPU      0.08s WALL (    1234 calls)
     h_psi        :      0.67s CPU      0.94s WALL (    1255 calls)
     s_psi        :      0.01s CPU      0.01s WALL (    1255 calls)
     g_psi        :      0.00s CPU      0.00s WALL (    1066 calls)

     Called by h_psi:
     h_psi:calbec :      0.03s CPU      0.04s WALL (    1255 calls)
     vloc_psi     :      0.64s CPU      0.89s WALL (    1255 calls)
     add_vuspsi   :      0.01s CPU      0.01s WALL (    1255 calls)

     General routines
     calbec       :      0.03s CPU      0.04s WALL (    1423 calls)
     fft          :      0.02s CPU      0.07s WALL (      99 calls)
     ffts         :      0.00s CPU      0.00s WALL (       8 calls)
     fftw         :      0.68s CPU      0.96s WALL (   12036 calls)
 
     Parallel routines
 
     PWSCF        :      1.05s CPU      1.51s WALL

 
   This run was terminated on:   5:44:31   1Feb2022            

=------------------------------------------------------------------------------=
   JOB DONE.
=------------------------------------------------------------------------------=
