
     Program PWSCF v.7.0 starts on  1Feb2022 at  5:44:15 

     This program is part of the open-source Quantum ESPRESSO suite
     for quantum simulation of materials; please cite
         "P. Giannozzi et al., J. Phys.:Condens. Matter 21 395502 (2009);
         "P. Giannozzi et al., J. Phys.:Condens. Matter 29 465901 (2017);
         "P. Giannozzi et al., J. Chem. Phys. 152 154105 (2020);
          URL http://www.quantum-espresso.org", 
     in publications or presentations arising from this work. More details at
     http://www.quantum-espresso.org/quote

     Parallel version (MPI), running on     4 processors

     MPI processes distributed on     1 nodes
     R & G space division:  proc/nbgrp/npool/nimage =       4
     250639 MiB available memory on the printing compute node when the environment starts
 
     Waiting for input...
     Reading input from standard input

     Current dimensions of program PWSCF are:
     Max number of different atomic species (ntypx) = 10
     Max number of k-points (npk) =  40000
     Max angular momentum in pseudopotentials (lmaxx) =  4

     Subspace diagonalization in iterative solution of the eigenvalue problem:
     a serial algorithm will be used

 
     Parallelization info
     --------------------
     sticks:   dense  smooth     PW     G-vecs:    dense   smooth      PW
     Min          60      60     19                 3036     3036     540
     Max          61      61     24                 3049     3049     547
     Sum         241     241     85                12161    12161    2167
 
     Using Slab Decomposition
 


     bravais-lattice index     =            4
     lattice parameter (alat)  =       4.6531  a.u.
     unit-cell volume          =     354.3310 (a.u.)^3
     number of atoms/cell      =            2
     number of atomic types    =            1
     number of electrons       =         8.00
     number of Kohn-Sham states=            8
     kinetic-energy cutoff     =      40.0000  Ry
     charge density cutoff     =     160.0000  Ry
     scf convergence threshold =      1.0E-06
     mixing beta               =       0.7000
     number of iterations used =            8  plain     mixing
     Exchange-correlation= PBE
                           (   1   4   3   4   0   0   0)

     celldm(1)=   4.653073  celldm(2)=   0.000000  celldm(3)=   4.061244
     celldm(4)=   0.000000  celldm(5)=   0.000000  celldm(6)=   0.000000

     crystal axes: (cart. coord. in units of alat)
               a(1) = (   1.000000   0.000000   0.000000 )  
               a(2) = (  -0.500000   0.866025   0.000000 )  
               a(3) = (   0.000000   0.000000   4.061244 )  

     reciprocal axes: (cart. coord. in units 2 pi/alat)
               b(1) = (  1.000000  0.577350  0.000000 )  
               b(2) = (  0.000000  1.154701  0.000000 )  
               b(3) = (  0.000000  0.000000  0.246230 )  


     PseudoPot. # 1 for C  read from file:
     ../pseudo/C.pbe-n-rrkjus_psl.0.1.UPF
     MD5 check sum: 96a6a315177d77e6c95bf6fd3870f9e3
     Pseudo is Ultrasoft + core correction, Zval =  4.0
     Generated using &quot;atomic&quot; code by A. Dal Corso  v.6.3MaX
     Using radial grid of 1073 points,  4 beta functions with: 
                l(1) =   0
                l(2) =   0
                l(3) =   1
                l(4) =   1
     Q(r) pseudized with 0 coefficients 


     atomic species   valence    mass     pseudopotential
        C              4.00    12.01070     C ( 1.00)

     24 Sym. Ops., with inversion, found



   Cartesian axes

     site n.     atom                  positions (alat units)
         1           C   tau(   1) = (   0.0000000   0.5773503   2.0306218  )
         2           C   tau(   2) = (   0.5000000   0.2886751   2.0306218  )

     number of k points=     5  Marzari-Vanderbilt smearing, width (Ry)=  0.0200
                       cart. coord. in units 2pi/alat
        k(    1) = (   0.0000000   0.0000000   0.0000000), wk =   0.0800000
        k(    2) = (   0.0000000   0.2309401   0.0000000), wk =   0.4800000
        k(    3) = (   0.0000000   0.4618802   0.0000000), wk =   0.4800000
        k(    4) = (   0.2000000   0.3464102   0.0000000), wk =   0.4800000
        k(    5) = (   0.2000000   0.5773503   0.0000000), wk =   0.4800000

     Dense  grid:    12161 G-vectors     FFT dimensions: (  20,  20,  80)

     Estimated max dynamical RAM per process >       4.57 MB

     Estimated total dynamical RAM >      18.28 MB

     Check: negative core charge=   -0.000021

     Initial potential from superposition of free atoms

     starting charge       7.9999, renormalised to       8.0000

     negative rho (up, down):  1.518E-05 0.000E+00
     Starting wfcs are    8 randomized atomic wfcs

     total cpu time spent up to now is        0.1 secs

     Self-consistent Calculation

     iteration #  1     ecut=    40.00 Ry     beta= 0.70
     Davidson diagonalization with overlap
     ethr =  1.00E-02,  avg # of iterations =  8.4

     negative rho (up, down):  6.248E-06 0.000E+00

     total cpu time spent up to now is        0.2 secs

     total energy              =     -23.85132176 Ry
     estimated scf accuracy    <       0.09838895 Ry

     iteration #  2     ecut=    40.00 Ry     beta= 0.70
     Davidson diagonalization with overlap
     ethr =  1.23E-03,  avg # of iterations =  7.8

     negative rho (up, down):  2.717E-04 0.000E+00

     total cpu time spent up to now is        0.2 secs

     total energy              =     -23.89956223 Ry
     estimated scf accuracy    <       0.01968804 Ry

     iteration #  3     ecut=    40.00 Ry     beta= 0.70
     Davidson diagonalization with overlap
     ethr =  2.46E-04,  avg # of iterations = 10.0

     negative rho (up, down):  1.594E-04 0.000E+00

     total cpu time spent up to now is        0.3 secs

     total energy              =     -23.90671897 Ry
     estimated scf accuracy    <       0.01100607 Ry

     iteration #  4     ecut=    40.00 Ry     beta= 0.70
     Davidson diagonalization with overlap
     ethr =  1.38E-04,  avg # of iterations =  1.8

     negative rho (up, down):  2.592E-04 0.000E+00

     total cpu time spent up to now is        0.3 secs

     total energy              =     -23.90652098 Ry
     estimated scf accuracy    <       0.00159775 Ry

     iteration #  5     ecut=    40.00 Ry     beta= 0.70
     Davidson diagonalization with overlap
     ethr =  2.00E-05,  avg # of iterations =  6.0

     negative rho (up, down):  2.149E-04 0.000E+00

     total cpu time spent up to now is        0.4 secs

     total energy              =     -23.90751509 Ry
     estimated scf accuracy    <       0.00061607 Ry

     iteration #  6     ecut=    40.00 Ry     beta= 0.70
     Davidson diagonalization with overlap
     ethr =  7.70E-06,  avg # of iterations =  5.4

     negative rho (up, down):  2.013E-04 0.000E+00

     total cpu time spent up to now is        0.4 secs

     total energy              =     -23.90759048 Ry
     estimated scf accuracy    <       0.00004654 Ry

     iteration #  7     ecut=    40.00 Ry     beta= 0.70
     Davidson diagonalization with overlap
     ethr =  5.82E-07,  avg # of iterations =  5.8

     negative rho (up, down):  2.052E-04 0.000E+00

     total cpu time spent up to now is        0.4 secs

     total energy              =     -23.90766165 Ry
     estimated scf accuracy    <       0.00001411 Ry

     iteration #  8     ecut=    40.00 Ry     beta= 0.70
     Davidson diagonalization with overlap
     ethr =  1.76E-07,  avg # of iterations =  2.0

     negative rho (up, down):  2.066E-04 0.000E+00

     total cpu time spent up to now is        0.5 secs

     End of self-consistent calculation

          k = 0.0000 0.0000 0.0000 (  1527 PWs)   bands (ev):

   -19.9895  -8.0893  -3.5124  -3.5124   2.3051   3.9944   4.8871   7.8860

          k = 0.0000 0.2309 0.0000 (  1522 PWs)   bands (ev):

   -19.0481  -6.9695  -6.6062  -5.0047   3.6054   5.2710   6.1538   7.8334

          k = 0.0000 0.4619 0.0000 (  1516 PWs)   bands (ev):

   -16.3033 -11.7989  -6.6658  -3.9360   2.7294   7.0817   7.5129   9.0988

          k = 0.2000 0.3464 0.0000 (  1515 PWs)   bands (ev):

   -17.2025  -9.4053  -7.9451  -4.8348   4.4748   6.1990   7.7637   8.6941

          k = 0.2000 0.5774 0.0000 (  1502 PWs)   bands (ev):

   -14.1282 -13.1562  -9.3224  -1.9477   0.8613  10.4140  10.8785  11.1781

     the Fermi energy is    -0.4015 ev

!    total energy              =     -23.90766485 Ry
     estimated scf accuracy    <       0.00000004 Ry
     smearing contrib. (-TS)   =       0.00000000 Ry
     internal energy E=F+TS    =     -23.90766485 Ry

     The total energy is F=E-TS. E is the sum of the following terms:
     one-electron contribution =     -90.80289110 Ry
     hartree contribution      =      47.23950697 Ry
     xc contribution           =      -8.30732997 Ry
     ewald contribution        =      27.96304925 Ry

     convergence has been achieved in   8 iterations

     Writing all to output data dir ../tmp/gr.save/
 
     init_run     :      0.04s CPU      0.10s WALL (       1 calls)
     electrons    :      0.26s CPU      0.33s WALL (       1 calls)

     Called by init_run:
     wfcinit      :      0.01s CPU      0.01s WALL (       1 calls)
     potinit      :      0.01s CPU      0.01s WALL (       1 calls)
     hinit0       :      0.03s CPU      0.07s WALL (       1 calls)

     Called by electrons:
     c_bands      :      0.20s CPU      0.27s WALL (       8 calls)
     sum_band     :      0.03s CPU      0.04s WALL (       8 calls)
     v_of_rho     :      0.02s CPU      0.02s WALL (       9 calls)
     newd         :      0.01s CPU      0.01s WALL (       9 calls)
     mix_rho      :      0.00s CPU      0.00s WALL (       8 calls)

     Called by c_bands:
     init_us_2    :      0.00s CPU      0.00s WALL (      85 calls)
     init_us_2:cp :      0.00s CPU      0.00s WALL (      85 calls)
     cegterg      :      0.20s CPU      0.26s WALL (      40 calls)

     Called by *egterg:
     cdiaghg      :      0.01s CPU      0.02s WALL (     276 calls)
     h_psi        :      0.17s CPU      0.22s WALL (     281 calls)
     s_psi        :      0.00s CPU      0.00s WALL (     281 calls)
     g_psi        :      0.00s CPU      0.00s WALL (     236 calls)

     Called by h_psi:
     h_psi:calbec :      0.01s CPU      0.01s WALL (     281 calls)
     vloc_psi     :      0.16s CPU      0.21s WALL (     281 calls)
     add_vuspsi   :      0.00s CPU      0.00s WALL (     281 calls)

     General routines
     calbec       :      0.01s CPU      0.01s WALL (     321 calls)
     fft          :      0.02s CPU      0.07s WALL (      99 calls)
     ffts         :      0.00s CPU      0.00s WALL (       8 calls)
     fftw         :      0.17s CPU      0.23s WALL (    2798 calls)
 
     Parallel routines
 
     PWSCF        :      0.33s CPU      0.48s WALL

 
   This run was terminated on:   5:44:15   1Feb2022            

=------------------------------------------------------------------------------=
   JOB DONE.
=------------------------------------------------------------------------------=
