
     Program PWSCF v.7.0 starts on  1Feb2022 at  5:44:25 

     This program is part of the open-source Quantum ESPRESSO suite
     for quantum simulation of materials; please cite
         "P. Giannozzi et al., J. Phys.:Condens. Matter 21 395502 (2009);
         "P. Giannozzi et al., J. Phys.:Condens. Matter 29 465901 (2017);
         "P. Giannozzi et al., J. Chem. Phys. 152 154105 (2020);
          URL http://www.quantum-espresso.org", 
     in publications or presentations arising from this work. More details at
     http://www.quantum-espresso.org/quote

     Parallel version (MPI), running on     4 processors

     MPI processes distributed on     1 nodes
     R & G space division:  proc/nbgrp/npool/nimage =       4
     250640 MiB available memory on the printing compute node when the environment starts
 
     Waiting for input...
     Reading input from standard input

     Current dimensions of program PWSCF are:
     Max number of different atomic species (ntypx) = 10
     Max number of k-points (npk) =  40000
     Max angular momentum in pseudopotentials (lmaxx) =  4

     Subspace diagonalization in iterative solution of the eigenvalue problem:
     a serial algorithm will be used

 
     Parallelization info
     --------------------
     sticks:   dense  smooth     PW     G-vecs:    dense   smooth      PW
     Min          60      60     20                 3036     3036     563
     Max          61      61     22                 3049     3049     568
     Sum         241     241     85                12161    12161    2263
 
     Using Slab Decomposition
 


     bravais-lattice index     =            4
     lattice parameter (alat)  =       4.6531  a.u.
     unit-cell volume          =     354.3310 (a.u.)^3
     number of atoms/cell      =            2
     number of atomic types    =            1
     number of electrons       =         8.00
     number of Kohn-Sham states=            8
     kinetic-energy cutoff     =      40.0000  Ry
     charge density cutoff     =     160.0000  Ry
     scf convergence threshold =      1.0E-06
     mixing beta               =       0.7000
     number of iterations used =            8  plain     mixing
     Exchange-correlation= PBE
                           (   1   4   3   4   0   0   0)

     celldm(1)=   4.653073  celldm(2)=   0.000000  celldm(3)=   4.061244
     celldm(4)=   0.000000  celldm(5)=   0.000000  celldm(6)=   0.000000

     crystal axes: (cart. coord. in units of alat)
               a(1) = (   1.000000   0.000000   0.000000 )  
               a(2) = (  -0.500000   0.866025   0.000000 )  
               a(3) = (   0.000000   0.000000   4.061244 )  

     reciprocal axes: (cart. coord. in units 2 pi/alat)
               b(1) = (  1.000000  0.577350  0.000000 )  
               b(2) = (  0.000000  1.154701  0.000000 )  
               b(3) = (  0.000000  0.000000  0.246230 )  


     PseudoPot. # 1 for C  read from file:
     ../pseudo/C.pbe-n-rrkjus_psl.0.1.UPF
     MD5 check sum: 96a6a315177d77e6c95bf6fd3870f9e3
     Pseudo is Ultrasoft + core correction, Zval =  4.0
     Generated using &quot;atomic&quot; code by A. Dal Corso  v.6.3MaX
     Using radial grid of 1073 points,  4 beta functions with: 
                l(1) =   0
                l(2) =   0
                l(3) =   1
                l(4) =   1
     Q(r) pseudized with 0 coefficients 


     atomic species   valence    mass     pseudopotential
        C              4.00    12.01070     C ( 1.00)

     24 Sym. Ops., with inversion, found



   Cartesian axes

     site n.     atom                  positions (alat units)
         1           C   tau(   1) = (   0.0000000   0.5773503   2.0306218  )
         2           C   tau(   2) = (   0.5000000   0.2886751   2.0306218  )

     number of k points=    16  Marzari-Vanderbilt smearing, width (Ry)=  0.0200
                       cart. coord. in units 2pi/alat
        k(    1) = (   0.0000000   0.0000000   0.0000000), wk =   0.0165289
        k(    2) = (   0.0000000   0.1049728   0.0000000), wk =   0.0991736
        k(    3) = (   0.0000000   0.2099456   0.0000000), wk =   0.0991736
        k(    4) = (   0.0000000   0.3149183   0.0000000), wk =   0.0991736
        k(    5) = (   0.0000000   0.4198911   0.0000000), wk =   0.0991736
        k(    6) = (   0.0000000   0.5248639   0.0000000), wk =   0.0991736
        k(    7) = (   0.0909091   0.1574592   0.0000000), wk =   0.0991736
        k(    8) = (   0.0909091   0.2624319   0.0000000), wk =   0.1983471
        k(    9) = (   0.0909091   0.3674047   0.0000000), wk =   0.1983471
        k(   10) = (   0.0909091   0.4723775   0.0000000), wk =   0.1983471
        k(   11) = (   0.0909091   0.5773503   0.0000000), wk =   0.0991736
        k(   12) = (   0.1818182   0.3149183   0.0000000), wk =   0.0991736
        k(   13) = (   0.1818182   0.4198911   0.0000000), wk =   0.1983471
        k(   14) = (   0.1818182   0.5248639   0.0000000), wk =   0.1983471
        k(   15) = (   0.2727273   0.4723775   0.0000000), wk =   0.0991736
        k(   16) = (   0.2727273   0.5773503   0.0000000), wk =   0.0991736

     Dense  grid:    12161 G-vectors     FFT dimensions: (  20,  20,  80)

     Estimated max dynamical RAM per process >       5.07 MB

     Estimated total dynamical RAM >      20.26 MB

     Check: negative core charge=   -0.000021

     Initial potential from superposition of free atoms

     starting charge       7.9999, renormalised to       8.0000

     negative rho (up, down):  1.518E-05 0.000E+00
     Starting wfcs are    8 randomized atomic wfcs

     total cpu time spent up to now is        0.2 secs

     Self-consistent Calculation

     iteration #  1     ecut=    40.00 Ry     beta= 0.70
     Davidson diagonalization with overlap
     ethr =  1.00E-02,  avg # of iterations =  8.0

     negative rho (up, down):  5.059E-06 0.000E+00

     total cpu time spent up to now is        0.3 secs

     WARNING: integrated charge=     8.00001497, expected=     8.00000000

     total energy              =     -23.85788638 Ry
     estimated scf accuracy    <       0.11781857 Ry

     iteration #  2     ecut=    40.00 Ry     beta= 0.70
     Davidson diagonalization with overlap
     ethr =  1.47E-03,  avg # of iterations =  4.8

     negative rho (up, down):  1.338E-04 0.000E+00

     total cpu time spent up to now is        0.4 secs

     WARNING: integrated charge=     8.00002868, expected=     8.00000000

     total energy              =     -23.89673452 Ry
     estimated scf accuracy    <       0.01248400 Ry

     iteration #  3     ecut=    40.00 Ry     beta= 0.70
     Davidson diagonalization with overlap
     c_bands:  2 eigenvalues not converged
     c_bands:  2 eigenvalues not converged
     ethr =  1.56E-04,  avg # of iterations = 14.7

     negative rho (up, down):  1.236E-04 0.000E+00

     total cpu time spent up to now is        0.7 secs

     WARNING: integrated charge=     8.00002899, expected=     8.00000000

     total energy              =     -23.90844460 Ry
     estimated scf accuracy    <       0.00324150 Ry

     iteration #  4     ecut=    40.00 Ry     beta= 0.70
     Davidson diagonalization with overlap
     ethr =  4.05E-05,  avg # of iterations =  5.3

     negative rho (up, down):  2.339E-04 0.000E+00

     total cpu time spent up to now is        0.8 secs

     WARNING: integrated charge=     8.00003577, expected=     8.00000000

     total energy              =     -23.90921215 Ry
     estimated scf accuracy    <       0.00011247 Ry

     iteration #  5     ecut=    40.00 Ry     beta= 0.70
     Davidson diagonalization with overlap
     c_bands:  1 eigenvalues not converged
     c_bands:  1 eigenvalues not converged
     c_bands:  1 eigenvalues not converged
     c_bands:  1 eigenvalues not converged
     c_bands:  1 eigenvalues not converged
     c_bands:  1 eigenvalues not converged
     ethr =  1.41E-06,  avg # of iterations = 15.4

     negative rho (up, down):  2.037E-04 0.000E+00

     total cpu time spent up to now is        1.0 secs

     WARNING: integrated charge=     8.00003420, expected=     8.00000000

     total energy              =     -23.90949327 Ry
     estimated scf accuracy    <       0.00018642 Ry

     iteration #  6     ecut=    40.00 Ry     beta= 0.70
     Davidson diagonalization with overlap
     ethr =  1.41E-06,  avg # of iterations =  3.6

     negative rho (up, down):  2.021E-04 0.000E+00

     total cpu time spent up to now is        1.1 secs

     WARNING: integrated charge=     8.00003446, expected=     8.00000000

     total energy              =     -23.90951675 Ry
     estimated scf accuracy    <       0.00000120 Ry

     iteration #  7     ecut=    40.00 Ry     beta= 0.70
     Davidson diagonalization with overlap
     ethr =  1.50E-08,  avg # of iterations =  6.2

     negative rho (up, down):  2.020E-04 0.000E+00

     total cpu time spent up to now is        1.2 secs

     WARNING: integrated charge=     8.00003430, expected=     8.00000000

     total energy              =     -23.90953049 Ry
     estimated scf accuracy    <       0.00001383 Ry

     iteration #  8     ecut=    40.00 Ry     beta= 0.70
     Davidson diagonalization with overlap
     ethr =  1.50E-08,  avg # of iterations =  4.0

     negative rho (up, down):  1.975E-04 0.000E+00

     total cpu time spent up to now is        1.3 secs

     WARNING: integrated charge=     8.00003431, expected=     8.00000000

     total energy              =     -23.90954079 Ry
     estimated scf accuracy    <       0.00000337 Ry

     iteration #  9     ecut=    40.00 Ry     beta= 0.70
     Davidson diagonalization with overlap
     ethr =  1.50E-08,  avg # of iterations =  4.1

     negative rho (up, down):  2.043E-04 0.000E+00

     total cpu time spent up to now is        1.4 secs

     WARNING: integrated charge=     8.00003440, expected=     8.00000000

     total energy              =     -23.90952599 Ry
     estimated scf accuracy    <       0.00002665 Ry

     iteration # 10     ecut=    40.00 Ry     beta= 0.70
     Davidson diagonalization with overlap
     ethr =  1.50E-08,  avg # of iterations =  4.0

     negative rho (up, down):  2.045E-04 0.000E+00

     total cpu time spent up to now is        1.5 secs

     End of self-consistent calculation

          k = 0.0000 0.0000 0.0000 (  1527 PWs)   bands (ev):

   -19.9950  -8.0941  -3.5193  -3.5193   2.3056   3.9945   4.8869   7.8807

          k = 0.0000 0.1050 0.0000 (  1534 PWs)   bands (ev):

   -19.7997  -7.8602  -4.2850  -3.9178   2.5743   4.2597   5.1490   7.9574

          k = 0.0000 0.2099 0.0000 (  1526 PWs)   bands (ev):

   -19.2163  -7.1663  -6.1647  -4.8153   3.3801   5.0513   5.9345   7.8785

          k = 0.0000 0.3149 0.0000 (  1518 PWs)   bands (ev):

   -18.2532  -8.5034  -6.0412  -5.7556   4.7210   6.0544   6.5234   7.1885

          k = 0.0000 0.4199 0.0000 (  1510 PWs)   bands (ev):

   -16.9295 -10.8916  -6.4753  -4.5707   3.6537   6.5831   7.2055   8.2306

          k = 0.0000 0.5249 0.0000 (  1516 PWs)   bands (ev):

   -15.3186 -13.0709  -6.8571  -3.1116   1.6077   6.9996   8.9918  10.5312

          k = 0.0909 0.1575 0.0000 (  1529 PWs)   bands (ev):

   -19.4104  -7.3961  -5.4607  -4.7150   3.1117   4.7887   5.6744   8.3299

          k = 0.0909 0.2624 0.0000 (  1511 PWs)   bands (ev):

   -18.6371  -7.3766  -6.4845  -5.8314   4.1857   5.8348   6.7239   7.1686

          k = 0.0909 0.3674 0.0000 (  1503 PWs)   bands (ev):

   -17.4932  -9.6571  -6.7460  -5.1732   4.7621   5.7921   7.4263   8.0914

          k = 0.0909 0.4724 0.0000 (  1519 PWs)   bands (ev):

   -16.0118 -11.9246  -7.3261  -3.6212   2.4475   7.8420   8.0079   9.4670

          k = 0.0909 0.5774 0.0000 (  1504 PWs)   bands (ev):

   -14.6148 -13.5980  -7.5240  -2.6357   1.1858   7.8221  10.5019  10.6101

          k = 0.1818 0.3149 0.0000 (  1521 PWs)   bands (ev):

   -17.6829  -8.7807  -7.3792  -5.3790   5.2739   5.5259   7.1297   8.0367

          k = 0.1818 0.4199 0.0000 (  1506 PWs)   bands (ev):

   -16.3765 -10.6396  -8.4616  -3.9260   3.1844   7.3921   8.8634   9.8094

          k = 0.1818 0.5249 0.0000 (  1508 PWs)   bands (ev):

   -14.7992 -12.6329  -8.9363  -2.4308   1.3241   9.7379   9.9732  10.6701

          k = 0.2727 0.4724 0.0000 (  1501 PWs)   bands (ev):

   -14.9503 -11.6378 -10.0502  -2.4058   1.5166   9.4935  10.1857  11.8259

          k = 0.2727 0.5774 0.0000 (  1496 PWs)   bands (ev):

   -13.6149 -12.8549 -10.5854  -1.2197   0.2909  10.3179  11.8319  11.9588

     the Fermi energy is    -0.2857 ev

     WARNING: integrated charge=     8.00003438, expected=     8.00000000

!    total energy              =     -23.90952993 Ry
     estimated scf accuracy    <          7.9E-09 Ry
     smearing contrib. (-TS)   =       0.00000052 Ry
     internal energy E=F+TS    =     -23.90953045 Ry

     The total energy is F=E-TS. E is the sum of the following terms:
     one-electron contribution =     -90.80116251 Ry
     hartree contribution      =      47.23482726 Ry
     xc contribution           =      -8.30624445 Ry
     ewald contribution        =      27.96304925 Ry

     convergence has been achieved in  10 iterations

     Writing all to output data dir ../tmp/gr.save/
 
     init_run     :      0.06s CPU      0.13s WALL (       1 calls)
     electrons    :      0.98s CPU      1.36s WALL (       1 calls)

     Called by init_run:
     wfcinit      :      0.02s CPU      0.03s WALL (       1 calls)
     potinit      :      0.00s CPU      0.01s WALL (       1 calls)
     hinit0       :      0.03s CPU      0.09s WALL (       1 calls)

     Called by electrons:
     c_bands      :      0.87s CPU      1.19s WALL (      10 calls)
     sum_band     :      0.10s CPU      0.14s WALL (      10 calls)
     v_of_rho     :      0.01s CPU      0.02s WALL (      11 calls)
     newd         :      0.01s CPU      0.01s WALL (      11 calls)
     mix_rho      :      0.00s CPU      0.00s WALL (      10 calls)

     Called by c_bands:
     init_us_2    :      0.01s CPU      0.01s WALL (     336 calls)
     init_us_2:cp :      0.01s CPU      0.01s WALL (     336 calls)
     cegterg      :      0.85s CPU      1.17s WALL (     160 calls)

     Called by *egterg:
     cdiaghg      :      0.06s CPU      0.09s WALL (    1281 calls)
     h_psi        :      0.71s CPU      0.97s WALL (    1297 calls)
     s_psi        :      0.01s CPU      0.01s WALL (    1297 calls)
     g_psi        :      0.00s CPU      0.00s WALL (    1121 calls)

     Called by h_psi:
     h_psi:calbec :      0.02s CPU      0.03s WALL (    1297 calls)
     vloc_psi     :      0.67s CPU      0.92s WALL (    1297 calls)
     add_vuspsi   :      0.01s CPU      0.01s WALL (    1297 calls)

     General routines
     calbec       :      0.03s CPU      0.04s WALL (    1457 calls)
     fft          :      0.02s CPU      0.09s WALL (     121 calls)
     ffts         :      0.00s CPU      0.00s WALL (      10 calls)
     fftw         :      0.72s CPU      0.98s WALL (   12360 calls)
 
     Parallel routines
 
     PWSCF        :      1.09s CPU      1.56s WALL

 
   This run was terminated on:   5:44:26   1Feb2022            

=------------------------------------------------------------------------------=
   JOB DONE.
=------------------------------------------------------------------------------=
