
     Program PW2WANNIER v.6.7MaX starts on  1Jan2023 at 17: 4:22 

     This program is part of the open-source Quantum ESPRESSO suite
     for quantum simulation of materials; please cite
         "P. Giannozzi et al., J. Phys.:Condens. Matter 21 395502 (2009);
         "P. Giannozzi et al., J. Phys.:Condens. Matter 29 465901 (2017);
          URL http://www.quantum-espresso.org", 
     in publications or presentations arising from this work. More details at
     http://www.quantum-espresso.org/quote

     Parallel version (MPI), running on     8 processors

     MPI processes distributed on     1 nodes
     R & G space division:  proc/nbgrp/npool/nimage =       8

  Reading nscf_save data

     Reading xml data from directory:

     ../tmp/mos2_open.save/
     Message from routine qexsd_readschema :
     input info not found or not readable in xml file
     EXX fraction changed:   0.25
     EXX Screening parameter changed:    0.1060000
     file Mo.pbe-spn-rrkjus_psl.1.0.0.UPF: wavefunction(s)  4S renormalized

     IMPORTANT: XC functional enforced from input :
     Exchange-correlation= HSE
                           (   1   4  12   4   0   0   0)
     EXX-fraction              =        0.25
     Any further DFT definition will be discarded
     Please, verify this is what you really want


     Parallelization info
     --------------------
     sticks:   dense  smooth     PW     G-vecs:    dense   smooth      PW
     Min          74      74     21                 9290     9290    1475
     Max          75      75     22                 9311     9311    1495
     Sum         595     595    169                74365    74365   11873


     negative rho (up, down):  2.634E-03 0.000E+00
     Reading collected, re-writing distributed wavefunctions

  Spin CASE ( default = unpolarized )

  Wannier mode is: standalone     

  -----------------
  *** Reading nnkp 
  -----------------

  Checking info from wannier.nnkp file

  - Real lattice is ok
  - Reciprocal lattice is ok
  - K-points are ok
  - Number of wannier functions is ok ( 11)
  - All guiding functions are given 

 Projections:
    0.000000    0.000000    3.142165  2  1  1    1.000000
    0.000000    0.000000    3.142165  2  2  1    1.000000
    0.000000    0.000000    3.142165  2  3  1    1.000000
    0.000000    0.000000    3.142165  2  4  1    1.000000
    0.000000    0.000000    3.142165  2  5  1    1.000000
   -0.000005    0.577353    2.650416  1  1  1    1.000000
   -0.000005    0.577353    2.650416  1  2  1    1.000000
   -0.000005    0.577353    2.650416  1  3  1    1.000000
   -0.000005    0.577353    3.633914  1  1  1    1.000000
   -0.000005    0.577353    3.633914  1  2  1    1.000000
   -0.000005    0.577353    3.633914  1  3  1    1.000000

  Reading data about k-point neighbours 

  All neighbours are found 

  Opening pp-files 


  --------------------------
  *** Compute  A projections
  --------------------------

  AMN: iknum =       36
       1       2       3       4       5       6       7       8       9      10
      11      12      13      14      15      16      17      18      19      20
      21      22      23      24      25      26      27      28      29      30
      31      32      33      34      35      36

  AMN calculated

  ---------------
  *** Compute  M 
  ---------------

  MMN: iknum =       36
       1       2       3       4       5       6       7       8       9      10
      11      12      13      14      15      16      17      18      19      20
      21      22      23      24      25      26      27      28      29      30
      31      32      33      34      35      36

  MMN calculated

  -----------------------------------
  *** Orbital terms are not computed 
  -----------------------------------

  ----------------
  *** Write bands 
  ----------------


  -----------------------------
  *** Plot info is not printed 
  -----------------------------

  -----------------------------
  *** Parity info is not printed 
  -----------------------------

  ------------
  *** Stop pp 
  ------------


     init_pw2wan  :      0.43s CPU      0.47s WALL (       1 calls)
     compute_amn  :      7.76s CPU      7.80s WALL (       1 calls)
     compute_mmn  :      2.05s CPU      2.21s WALL (       1 calls)

     PW2WANNIER   :     10.24s CPU     10.48s WALL


   This run was terminated on:  17: 4:32   1Jan2023            

=------------------------------------------------------------------------------=
   JOB DONE.
=------------------------------------------------------------------------------=

