
     Program PWSCF v.6.7MaX starts on  1Jan2023 at 16:25:21 

     This program is part of the open-source Quantum ESPRESSO suite
     for quantum simulation of materials; please cite
         "P. Giannozzi et al., J. Phys.:Condens. Matter 21 395502 (2009);
         "P. Giannozzi et al., J. Phys.:Condens. Matter 29 465901 (2017);
          URL http://www.quantum-espresso.org", 
     in publications or presentations arising from this work. More details at
     http://www.quantum-espresso.org/quote

     Parallel version (MPI), running on     8 processors

     MPI processes distributed on     1 nodes
     R & G space division:  proc/nbgrp/npool/nimage =       8
     Waiting for input...
     Reading input from standard input

     Current dimensions of program PWSCF are:
     Max number of different atomic species (ntypx) = 10
     Max number of k-points (npk) =  40000
     Max angular momentum in pseudopotentials (lmaxx) =  3
     file Mo.pbe-spn-rrkjus_psl.1.0.0.UPF: wavefunction(s)  4S renormalized

     IMPORTANT: XC functional enforced from input :
     Exchange-correlation= HSE
                           (   1   4  12   4   0   0   0)
     EXX-fraction              =        0.25
     Any further DFT definition will be discarded
     Please, verify this is what you really want

     EXX fraction changed:   0.25
     Message from routine setup :
     BEWARE: nonlinear core correction is not consistent with hybrid XC

     Subspace diagonalization in iterative solution of the eigenvalue problem:
     one sub-group per band group will be used
     scalapack distributed-memory algorithm (size of sub-group:  2*  2 procs)

     EXX: q-point mesh:     2    2    1
     EXX: setup a grid of 24 q-points centered on each k-point
     (k+q)-points:
   0.0000000   0.0000000   0.0000000         1    1
   0.0000000  -0.5773503   0.0000000         4    1
   0.5000000   0.2886751   0.0000000         4    4
  -0.5000000   0.2886751   0.0000000         4    3
   0.0000000   0.1924501   0.0000000         2    1
  -0.0000000  -0.3849002   0.0000000         3   -1
  -0.5000000  -0.0962250   0.0000000         6    4
   0.5000000  -0.0962250   0.0000000         6    6
   0.0000000   0.3849002   0.0000000         3    1
  -0.0000000  -0.1924501   0.0000000         2   -1
  -0.5000000   0.0962250   0.0000000         6   -6
   0.5000000   0.0962250  -0.0000000         6   -4
   0.1666667   0.2886751   0.0000000         5    1
   0.1666667  -0.2886751  -0.0000000         5   -2
  -0.3333333  -0.0000000   0.0000000         5    4
  -0.3333333  -0.5773503   0.0000000         7   -1
   0.1666667   0.4811252   0.0000000         6    1
   0.1666667  -0.0962250   0.0000000         2    3
  -0.3333333   0.1924501   0.0000000         3   -3
  -0.3333333  -0.3849002   0.0000000         6    5
   0.3333333   0.5773503   0.0000000         7    1
   0.3333333   0.0000000  -0.0000000         5   -4
  -0.1666667   0.2886751   0.0000000         5    2
  -0.1666667  -0.2886751   0.0000000         5   -1

     Parallelization info
     --------------------
     sticks:   dense  smooth     PW     G-vecs:    dense   smooth      PW
     Min          74      74     21                 9290     9290    1475
     Max          75      75     22                 9311     9311    1495
     Sum         595     595    169                74365    74365   11873



     bravais-lattice index     =            4
     lattice parameter (alat)  =       6.0141  a.u.
     unit-cell volume          =    1183.8569 (a.u.)^3
     number of atoms/cell      =            3
     number of atomic types    =            2
     number of electrons       =        26.00
     number of Kohn-Sham states=           30
     kinetic-energy cutoff     =      60.0000  Ry
     charge density cutoff     =     240.0000  Ry
     cutoff for Fock operator  =     240.0000  Ry
     scf convergence threshold =      1.0E-06
     mixing beta               =       0.7000
     number of iterations used =            8  plain     mixing
     Exchange-correlation= HSE
                           (   1   4  12   4   0   0   0)
     EXX-fraction              =        0.25

     celldm(1)=   6.014089  celldm(2)=   0.000000  celldm(3)=   6.284330
     celldm(4)=   0.000000  celldm(5)=   0.000000  celldm(6)=   0.000000

     crystal axes: (cart. coord. in units of alat)
               a(1) = (   1.000000   0.000000   0.000000 )  
               a(2) = (  -0.500000   0.866025   0.000000 )  
               a(3) = (   0.000000   0.000000   6.284330 )  

     reciprocal axes: (cart. coord. in units 2 pi/alat)
               b(1) = (  1.000000  0.577350 -0.000000 )  
               b(2) = (  0.000000  1.154701  0.000000 )  
               b(3) = (  0.000000 -0.000000  0.159126 )  


     PseudoPot. # 1 for Mo read from file:
     ../pseudo/Mo.pbe-spn-rrkjus_psl.1.0.0.UPF
     MD5 check sum: 03f09b12e49601d1a456a78ce8b2d514
     Pseudo is Ultrasoft + core correction, Zval = 14.0
     Generated using &quot;atomic&quot; code by A. Dal Corso  v.6.3
     Using radial grid of 1229 points,  6 beta functions with: 
                l(1) =   0
                l(2) =   0
                l(3) =   1
                l(4) =   1
                l(5) =   2
                l(6) =   2
     Q(r) pseudized with 0 coefficients 


     PseudoPot. # 2 for S  read from file:
     ../pseudo/S.pbe-nl-rrkjus_psl.1.0.0.UPF
     MD5 check sum: 816524f9d2370a67bf2b5249ef8e004b
     Pseudo is Ultrasoft + core correction, Zval =  6.0
     Generated using &quot;atomic&quot; code by A. Dal Corso  v.6.3
     Using radial grid of 1151 points,  4 beta functions with: 
                l(1) =   0
                l(2) =   0
                l(3) =   1
                l(4) =   1
     Q(r) pseudized with 0 coefficients 


     atomic species   valence    mass     pseudopotential
        Mo            14.00    95.94000     Mo( 1.00)
        S              6.00    32.06500     S ( 1.00)

     12 Sym. Ops. (no inversion) found



   Cartesian axes

     site n.     atom                  positions (alat units)
         1           Mo  tau(   1) = (   0.0000000   0.0000000   3.1421652  )
         2           S   tau(   2) = (  -0.0000000   0.5773503   2.6504465  )
         3           S   tau(   3) = (  -0.0000000   0.5773503   3.6338831  )

     number of k points=     7
                       cart. coord. in units 2pi/alat
        k(    1) = (   0.0000000   0.0000000   0.0000000), wk =   0.0555556
        k(    2) = (   0.0000000   0.1924501   0.0000000), wk =   0.3333333
        k(    3) = (   0.0000000   0.3849002   0.0000000), wk =   0.3333333
        k(    4) = (   0.0000000  -0.5773503   0.0000000), wk =   0.1666667
        k(    5) = (   0.1666667   0.2886751   0.0000000), wk =   0.3333333
        k(    6) = (   0.1666667   0.4811252   0.0000000), wk =   0.6666667
        k(    7) = (   0.3333333   0.5773503   0.0000000), wk =   0.1111111

     Dense  grid:    74365 G-vectors     FFT dimensions: (  30,  30, 192)

     Estimated max dynamical RAM per process >     252.87 MB

     Estimated total dynamical RAM >       1.98 GB

     Initial potential from superposition of free atoms

     starting charge   25.99905, renormalised to   26.00000

     negative rho (up, down):  2.169E-03 0.000E+00
     Starting wfcs are   18 randomized atomic wfcs +   12 random wfcs

     total cpu time spent up to now is        0.6 secs

     Self-consistent Calculation

     iteration #  1     ecut=    60.00 Ry     beta= 0.70
     Davidson diagonalization with overlap
     ethr =  1.00E-02,  avg # of iterations =  9.1

     Threshold (ethr) on eigenvalues was too large:
     Diagonalizing with lowered threshold

     Davidson diagonalization with overlap
     ethr =  4.80E-04,  avg # of iterations =  1.9

     negative rho (up, down):  2.541E-03 0.000E+00

     total cpu time spent up to now is        1.7 secs

     total energy              =    -181.52872583 Ry
     estimated scf accuracy    <       0.12588129 Ry

     iteration #  2     ecut=    60.00 Ry     beta= 0.70
     Davidson diagonalization with overlap
     ethr =  4.84E-04,  avg # of iterations =  4.9

     negative rho (up, down):  2.486E-03 0.000E+00

     total cpu time spent up to now is        2.3 secs

     total energy              =    -181.49573474 Ry
     estimated scf accuracy    <       0.35200821 Ry

     iteration #  3     ecut=    60.00 Ry     beta= 0.70
     Davidson diagonalization with overlap
     ethr =  4.84E-04,  avg # of iterations =  2.4

     negative rho (up, down):  2.509E-03 0.000E+00

     total cpu time spent up to now is        2.7 secs

     total energy              =    -181.55912525 Ry
     estimated scf accuracy    <       0.15621869 Ry

     iteration #  4     ecut=    60.00 Ry     beta= 0.70
     Davidson diagonalization with overlap
     ethr =  4.84E-04,  avg # of iterations =  1.0

     negative rho (up, down):  2.592E-03 0.000E+00

     total cpu time spent up to now is        3.1 secs

     total energy              =    -181.57947051 Ry
     estimated scf accuracy    <       0.00077996 Ry

     iteration #  5     ecut=    60.00 Ry     beta= 0.70
     Davidson diagonalization with overlap
     ethr =  3.00E-06,  avg # of iterations =  6.1

     negative rho (up, down):  2.595E-03 0.000E+00

     total cpu time spent up to now is        3.6 secs

     total energy              =    -181.57964030 Ry
     estimated scf accuracy    <       0.00002816 Ry

     iteration #  6     ecut=    60.00 Ry     beta= 0.70
     Davidson diagonalization with overlap
     ethr =  1.08E-07,  avg # of iterations =  2.0

     negative rho (up, down):  2.598E-03 0.000E+00

     total cpu time spent up to now is        4.1 secs

     total energy              =    -181.57964465 Ry
     estimated scf accuracy    <       0.00000201 Ry

     iteration #  7     ecut=    60.00 Ry     beta= 0.70
     Davidson diagonalization with overlap
     ethr =  7.72E-09,  avg # of iterations =  2.4

     negative rho (up, down):  2.599E-03 0.000E+00

     total cpu time spent up to now is        4.5 secs

     End of self-consistent calculation

          k = 0.0000 0.0000 0.0000 (  9363 PWs)   bands (ev):

   -61.8454 -35.9880 -35.7785 -35.7785 -15.0332 -13.7422  -6.5657  -3.5512
    -3.5512  -2.7407  -2.4483  -2.4483  -0.9780   1.8016   1.8016   2.0395
     2.0395   4.0243   4.3238   4.7617   5.4132   5.9337   7.0924   8.0471
     8.8059   9.8065   9.8065  10.0508  11.8103  11.8104

          k = 0.0000 0.1925 0.0000 (  9319 PWs)   bands (ev):

   -61.8359 -35.9694 -35.8729 -35.8000 -14.6405 -13.5788  -6.1530  -4.3076
    -3.8627  -3.1471  -2.9957  -2.0466  -1.2596   1.3302   1.6145   1.6577
     2.3870   4.5917   4.8636   5.3856   6.4445   6.8263   7.6660   8.8605
     8.9673   9.3638  10.4354  10.6118  10.9855  11.5162

          k = 0.0000 0.3849 0.0000 (  9303 PWs)   bands (ev):

   -61.8172 -36.0577 -35.9320 -35.8429 -13.7283 -13.2060  -6.1778  -5.1276
    -4.8596  -3.7898  -2.5944  -2.3142  -1.9284   1.2519   1.3699   2.4282
     3.1132   6.0382   6.3002   6.6751   6.9125   7.3013   8.1098   8.1366
     9.3978   9.9726  10.9930  11.2430  11.3244  11.9236

          k = 0.0000-0.5774 0.0000 (  9276 PWs)   bands (ev):

   -61.8078 -36.1481 -35.9133 -35.8641 -13.1667 -12.9881  -6.7160  -5.7378
    -5.0215  -4.1067  -2.8450  -1.9281  -1.5960   1.2844   1.7904   2.9099
     3.3305   5.1765   6.9011   7.2325   7.9416   8.6232   9.0703   9.1021
     9.2879   9.8434  10.0932  10.2174  10.6034  10.6124

          k = 0.1667 0.2887 0.0000 (  9323 PWs)   bands (ev):

   -61.8219 -35.9946 -35.9414 -35.8501 -13.9799 -13.3031  -5.8670  -4.7778
    -4.6132  -4.1338  -2.9161  -2.0143  -1.7457   0.9694   1.5107   1.7111
     3.1976   5.6420   5.8924   6.3841   7.3743   7.9120   8.3627   8.6660
     9.0784   9.8354  10.4661  10.7277  11.1000  11.4661

          k = 0.1667 0.4811 0.0000 (  9262 PWs)   bands (ev):

   -61.8078 -36.1020 -35.9133 -35.9121 -13.1879 -12.9722  -6.2516  -5.8309
    -4.7869  -4.1579  -3.3137  -2.6819  -1.4514   1.2496   1.8287   2.3760
     3.4620   6.0310   7.5277   7.5675   8.1553   8.4049   8.7297   9.1160
     9.5177  10.1791  10.1976  11.1838  11.4545  11.6112

          k = 0.3333 0.5774 0.0000 (  9234 PWs)   bands (ev):

   -61.8030 -36.0571 -36.0146 -35.9039 -12.9012 -12.8283  -6.3456  -5.5349
    -5.0164  -4.5180  -3.8333  -3.1273  -0.9723   0.7153   2.0890   2.5718
     3.9017   6.2452   6.6162   8.5935   9.4092  10.0658  10.4782  10.5710
    10.6432  10.6555  10.8433  11.0787  11.2894  11.2908

     highest occupied, lowest unoccupied level (ev):    -0.9723    0.7153

!    total energy              =    -181.57964508 Ry
     estimated scf accuracy    <       0.00000003 Ry

     convergence has been achieved in   7 iterations

     Using ACE for calculation of exact exchange

     EXX grid:    74365 G-vectors     FFT dimensions: (  30,  30, 192)

     negative rho (up, down):  2.599E-03 0.000E+00

     EXX: now go back to refine exchange calculation

     total cpu time spent up to now is      358.2 secs

     Self-consistent Calculation

     iteration #  1     ecut=    60.00 Ry     beta= 0.70
     Davidson diagonalization with overlap
     ethr =  7.72E-09,  avg # of iterations = 10.1

     negative rho (up, down):  2.642E-03 0.000E+00

     total cpu time spent up to now is      359.5 secs

     total energy              =    -179.30838142 Ry
     estimated scf accuracy    <       0.02880021 Ry

     iteration #  2     ecut=    60.00 Ry     beta= 0.70
     Davidson diagonalization with overlap
     ethr =  1.11E-04,  avg # of iterations =  3.0

     negative rho (up, down):  2.656E-03 0.000E+00

     total cpu time spent up to now is      360.2 secs

     total energy              =    -180.37310856 Ry
     estimated scf accuracy    <       0.10361396 Ry

     iteration #  3     ecut=    60.00 Ry     beta= 0.70
     Davidson diagonalization with overlap
     ethr =  1.11E-04,  avg # of iterations =  2.1

     negative rho (up, down):  2.654E-03 0.000E+00

     total cpu time spent up to now is      360.7 secs

     total energy              =    -180.39277776 Ry
     estimated scf accuracy    <       0.01599988 Ry

     iteration #  4     ecut=    60.00 Ry     beta= 0.70
     Davidson diagonalization with overlap
     ethr =  6.15E-05,  avg # of iterations =  1.0

     negative rho (up, down):  2.647E-03 0.000E+00

     total cpu time spent up to now is      361.1 secs

     total energy              =    -180.39410672 Ry
     estimated scf accuracy    <       0.00084052 Ry

     iteration #  5     ecut=    60.00 Ry     beta= 0.70
     Davidson diagonalization with overlap
     ethr =  3.23E-06,  avg # of iterations =  2.1

     negative rho (up, down):  2.638E-03 0.000E+00

     total cpu time spent up to now is      361.5 secs

     total energy              =    -180.39406772 Ry
     estimated scf accuracy    <       0.00023259 Ry

     iteration #  6     ecut=    60.00 Ry     beta= 0.70
     Davidson diagonalization with overlap
     ethr =  8.95E-07,  avg # of iterations =  1.3

     negative rho (up, down):  2.630E-03 0.000E+00

     total cpu time spent up to now is      361.9 secs

     total energy              =    -180.39403979 Ry
     estimated scf accuracy    <       0.00006648 Ry

     iteration #  7     ecut=    60.00 Ry     beta= 0.70
     Davidson diagonalization with overlap
     ethr =  2.56E-07,  avg # of iterations =  2.0

     negative rho (up, down):  2.629E-03 0.000E+00

     total cpu time spent up to now is      362.4 secs

     End of self-consistent calculation

          k = 0.0000 0.0000 0.0000 (  9363 PWs)   bands (ev):

   -65.8438 -38.8224 -38.4301 -38.4301 -17.0396 -15.6102  -7.7274  -4.3039
    -4.3039  -3.5922  -3.2333  -3.2333  -1.5940   2.2095   2.2095   2.5008
     2.5008   4.1114   4.4303   4.9484   5.8876   6.0712   7.2667   8.6749
     8.9766  10.3385  10.5143  10.5143  12.6585  12.6585

          k = 0.0000 0.1925 0.0000 (  9319 PWs)   bands (ev):

   -65.8602 -38.7541 -38.6420 -38.5215 -16.5768 -15.4060  -7.2384  -5.2362
    -4.6887  -3.9635  -3.7936  -2.8276  -1.8437   1.6645   2.0361   2.1086
     2.8714   4.6782   4.9865   5.5507   6.6008   7.3404   7.9539   9.3474
     9.5255   9.8549  10.9460  11.1359  11.7766  12.3032

          k = 0.0000 0.3849 0.0000 (  9303 PWs)   bands (ev):

   -65.8613 -38.9182 -38.7442 -38.6011 -15.5362 -14.9681  -7.2592  -6.0763
    -5.8416  -4.6519  -3.3797  -3.0550  -2.5276   1.6100   1.6250   2.9741
     3.6573   6.2098   6.4922   6.8781   7.5281   7.6637   8.4533   8.5115
     9.8562  10.4192  11.5127  11.6358  12.1456  12.4639

          k = 0.0000-0.5774 0.0000 (  9276 PWs)   bands (ev):

   -65.8549 -39.0165 -38.8129 -38.5968 -14.9047 -14.7340  -7.8127  -6.7231
    -5.9993  -5.0306  -3.7000  -2.5877  -2.2443   1.8028   2.1550   3.3688
     3.8708   5.6805   7.4145   7.7844   8.3733   8.9571   9.1945   9.2505
     9.4868   9.9847  10.3249  10.7977  10.8767  10.9393

          k = 0.1667 0.2887 0.0000 (  9323 PWs)   bands (ev):

   -65.8548 -38.8432 -38.6851 -38.6251 -15.8341 -15.0923  -6.9337  -5.7648
    -5.4838  -5.0374  -3.7420  -2.7589  -2.3665   1.2822   1.8373   2.2603
     3.7621   5.7476   6.0459   6.5576   7.5638   8.5369   8.7055   9.2077
     9.7239  10.2084  11.0409  11.4388  11.7123  12.0744

          k = 0.1667 0.4811 0.0000 (  9262 PWs)   bands (ev):

   -65.8588 -38.9858 -38.7426 -38.7045 -14.9299 -14.7069  -7.3222  -6.8149
    -5.7752  -5.0618  -4.1482  -3.4430  -2.0773   1.5807   2.2828   2.9083
     3.9934   6.5511   7.8450   7.8789   8.3731   8.8413   9.2432   9.4889
    10.0056  10.5442  10.7146  11.3428  11.7002  11.9391

          k = 0.3333 0.5774 0.0000 (  9234 PWs)   bands (ev):

   -65.8424 -38.8983 -38.8691 -38.6793 -14.6273 -14.5543  -7.3889  -6.5705
    -5.9786  -5.5344  -4.6689  -3.9436  -1.5121   1.0365   2.6055   2.9730
     4.5501   6.7646   7.1775   9.0808   9.9429  10.4390  10.6808  10.7672
    10.8131  10.9429  11.3505  11.3556  11.4290  11.6780

     highest occupied, lowest unoccupied level (ev):    -1.5121    1.0365

!    total energy              =    -180.39405290 Ry
     estimated scf accuracy    <       0.00000064 Ry

     convergence has been achieved in   7 iterations

     Using ACE for calculation of exact exchange

     total energy              =    -180.39455189 Ry
     Harris-Foulkes estimate   =    -180.39455238 Ry
     est. exchange err (dexx)  =       0.00049899 Ry
     - averaged Fock potential =       9.47701167 Ry
     + Fock energy (ACE)       =      -4.73351891 Ry

     EXX: now go back to refine exchange calculation

     total cpu time spent up to now is      718.7 secs

     Self-consistent Calculation

     iteration #  1     ecut=    60.00 Ry     beta= 0.70
     Davidson diagonalization with overlap
     ethr =  2.56E-07,  avg # of iterations =  2.6

     negative rho (up, down):  2.631E-03 0.000E+00

     total cpu time spent up to now is      719.2 secs

     total energy              =    -180.39458263 Ry
     estimated scf accuracy    <       0.00005554 Ry

     iteration #  2     ecut=    60.00 Ry     beta= 0.70
     Davidson diagonalization with overlap
     ethr =  2.14E-07,  avg # of iterations =  2.0

     negative rho (up, down):  2.632E-03 0.000E+00

     total cpu time spent up to now is      719.8 secs

     total energy              =    -180.39455968 Ry
     estimated scf accuracy    <       0.00030129 Ry

     iteration #  3     ecut=    60.00 Ry     beta= 0.70
     Davidson diagonalization with overlap
     ethr =  2.14E-07,  avg # of iterations =  2.0

     negative rho (up, down):  2.633E-03 0.000E+00

     total cpu time spent up to now is      720.2 secs

     total energy              =    -180.39460973 Ry
     estimated scf accuracy    <       0.00000625 Ry

     iteration #  4     ecut=    60.00 Ry     beta= 0.70
     Davidson diagonalization with overlap
     ethr =  2.40E-08,  avg # of iterations =  1.3

     negative rho (up, down):  2.633E-03 0.000E+00

     total cpu time spent up to now is      720.6 secs

     End of self-consistent calculation

          k = 0.0000 0.0000 0.0000 (  9363 PWs)   bands (ev):

   -65.8641 -38.8489 -38.4444 -38.4444 -17.0461 -15.6120  -7.7450  -4.3099
    -4.3099  -3.6094  -3.2478  -3.2478  -1.6310   2.2094   2.2094   2.5077
     2.5077   4.1129   4.4323   4.9495   5.8833   6.0727   7.2665   8.6652
     8.9776  10.3364  10.5038  10.5038  12.6513  12.6513

          k = 0.0000 0.1925 0.0000 (  9319 PWs)   bands (ev):

   -65.8794 -38.7705 -38.6588 -38.5386 -16.5821 -15.4081  -7.2542  -5.2530
    -4.6982  -3.9732  -3.8032  -2.8453  -1.8648   1.6592   2.0386   2.1143
     2.8744   4.6797   4.9881   5.5518   6.6019   7.3361   7.9510   9.3461
     9.5168   9.8477  10.9436  11.1283  11.7661  12.2926

          k = 0.0000 0.3849 0.0000 (  9303 PWs)   bands (ev):

   -65.8789 -38.9324 -38.7590 -38.6158 -15.5434 -14.9723  -7.2745  -6.0862
    -5.8595  -4.6605  -3.3951  -3.0652  -2.5385   1.6066   1.6113   2.9796
     3.6605   6.2102   6.4931   6.8773   7.5211   7.6593   8.4503   8.5078
     9.8531  10.4167  11.5061  11.6325  12.1333  12.4598

          k = 0.0000-0.5774 0.0000 (  9276 PWs)   bands (ev):

   -65.8717 -39.0240 -38.8360 -38.6060 -14.9140 -14.7420  -7.8287  -6.7344
    -6.0135  -5.0442  -3.7154  -2.6048  -2.2644   1.8197   2.1407   3.3688
     3.8730   5.6724   7.4030   7.7805   8.3706   8.9570   9.1955   9.2521
     9.4855   9.9844  10.3252  10.7987  10.8739  10.9277

          k = 0.1667 0.2887 0.0000 (  9323 PWs)   bands (ev):

   -65.8709 -38.8602 -38.6877 -38.6427 -15.8423 -15.0981  -6.9477  -5.7831
    -5.4907  -5.0474  -3.7553  -2.7770  -2.3788   1.2798   1.8308   2.2678
     3.7657   5.7491   6.0471   6.5587   7.5640   8.5353   8.6975   9.1981
     9.7116  10.2054  11.0358  11.4295  11.7054  12.0677

          k = 0.1667 0.4811 0.0000 (  9262 PWs)   bands (ev):

   -65.8767 -38.9996 -38.7571 -38.7204 -14.9362 -14.7116  -7.3339  -6.8204
    -5.7920  -5.0735  -4.1658  -3.4567  -2.0970   1.5735   2.2827   2.9145
     3.9920   6.5428   7.8441   7.8782   8.3715   8.8357   9.2353   9.4857
    10.0017  10.5416  10.7089  11.3433  11.6993  11.9372

          k = 0.3333 0.5774 0.0000 (  9234 PWs)   bands (ev):

   -65.8584 -38.9175 -38.8856 -38.6805 -14.6345 -14.5601  -7.3943  -6.5828
    -5.9939  -5.5540  -4.6823  -3.9573  -1.5272   1.0450   2.6102   2.9562
     4.5542   6.7506   7.1700   9.0751   9.9371  10.4390  10.6812  10.7685
    10.8135  10.9431  11.3372  11.3539  11.4285  11.6782

     highest occupied, lowest unoccupied level (ev):    -1.5272    1.0450

!    total energy              =    -180.39461083 Ry
     estimated scf accuracy    <       0.00000014 Ry

     convergence has been achieved in   4 iterations

     Using ACE for calculation of exact exchange

     total energy              =    -180.39462157 Ry
     Harris-Foulkes estimate   =    -180.39462167 Ry
     est. exchange err (dexx)  =       0.00001074 Ry
     - averaged Fock potential =       9.46664195 Ry
     + Fock energy (ACE)       =      -4.73313378 Ry

     EXX: now go back to refine exchange calculation

     total cpu time spent up to now is     1074.9 secs

     Self-consistent Calculation

     iteration #  1     ecut=    60.00 Ry     beta= 0.70
     Davidson diagonalization with overlap
     ethr =  2.40E-08,  avg # of iterations =  2.1

     negative rho (up, down):  2.634E-03 0.000E+00

     total cpu time spent up to now is     1075.3 secs

     End of self-consistent calculation

          k = 0.0000 0.0000 0.0000 (  9363 PWs)   bands (ev):

   -65.8606 -38.8489 -38.4385 -38.4385 -17.0421 -15.6080  -7.7429  -4.3035
    -4.3035  -3.6077  -3.2440  -3.2440  -1.6371   2.2147   2.2147   2.5145
     2.5145   4.1118   4.4316   4.9490   5.8885   6.0721   7.2661   8.6675
     8.9770  10.3361  10.5067  10.5067  12.6545  12.6545

          k = 0.0000 0.1925 0.0000 (  9319 PWs)   bands (ev):

   -65.8759 -38.7683 -38.6546 -38.5334 -16.5775 -15.4035  -7.2518  -5.2498
    -4.6944  -3.9677  -3.7988  -2.8433  -1.8651   1.6623   2.0455   2.1205
     2.8803   4.6787   4.9873   5.5512   6.6013   7.3388   7.9525   9.3463
     9.5196   9.8497  10.9436  11.1310  11.7692  12.2940

          k = 0.0000 0.3849 0.0000 (  9303 PWs)   bands (ev):

   -65.8752 -38.9280 -38.7566 -38.6102 -15.5390 -14.9678  -7.2714  -6.0825
    -5.8576  -4.6560  -3.3931  -3.0602  -2.5349   1.6058   1.6188   2.9856
     3.6664   6.2095   6.4928   6.8769   7.5238   7.6603   8.4512   8.5088
     9.8546  10.4176  11.5072  11.6329  12.1365  12.4615

          k = 0.0000-0.5774 0.0000 (  9276 PWs)   bands (ev):

   -65.8677 -39.0173 -38.8354 -38.5996 -14.9101 -14.7383  -7.8262  -6.7315
    -6.0107  -5.0405  -3.7132  -2.6023  -2.2632   1.8308   2.1411   3.3742
     3.8789   5.6753   7.4046   7.7828   8.3720   8.9572   9.1946   9.2515
     9.4857   9.9838  10.3251  10.7981  10.8739  10.9312

          k = 0.1667 0.2887 0.0000 (  9323 PWs)   bands (ev):

   -65.8666 -38.8560 -38.6809 -38.6387 -15.8383 -15.0941  -6.9442  -5.7809
    -5.4865  -5.0436  -3.7515  -2.7752  -2.3749   1.2846   1.8353   2.2739
     3.7714   5.7482   6.0464   6.5583   7.5635   8.5362   8.6993   9.2001
     9.7144  10.2059  11.0369  11.4325  11.7070  12.0692

          k = 0.1667 0.4811 0.0000 (  9262 PWs)   bands (ev):

   -65.8731 -38.9942 -38.7546 -38.7161 -14.9316 -14.7070  -7.3301  -6.8156
    -5.7899  -5.0702  -4.1633  -3.4543  -2.0951   1.5765   2.2894   2.9207
     3.9967   6.5451   7.8443   7.8785   8.3719   8.8370   9.2369   9.4868
    10.0031  10.5419  10.7104  11.3425  11.6989  11.9377

          k = 0.3333 0.5774 0.0000 (  9234 PWs)   bands (ev):

   -65.8541 -38.9144 -38.8809 -38.6734 -14.6301 -14.5557  -7.3897  -6.5795
    -5.9909  -5.5523  -4.6798  -3.9548  -1.5233   1.0546   2.6154   2.9572
     4.5606   6.7527   7.1719   9.0759   9.9383  10.4393  10.6805  10.7675
    10.8129  10.9422  11.3399  11.3539  11.4277  11.6784

     highest occupied, lowest unoccupied level (ev):    -1.5233    1.0546

!    total energy              =    -180.39462389 Ry
     estimated scf accuracy    <       0.00000071 Ry

     convergence has been achieved in   1 iterations

     Using ACE for calculation of exact exchange

!!   total energy              =    -180.39462477 Ry
     Harris-Foulkes estimate   =    -180.39462534 Ry
     est. exchange err (dexx)  =       0.00000088 Ry
     - averaged Fock potential =       9.46622688 Ry
     + Fock energy (ACE)       =      -4.73309398 Ry

     EXX self-consistency reached

     Writing output data file ../tmp/mos2.save/

     init_run     :      0.42s CPU      0.45s WALL (       1 calls)
     electrons    :     10.05s CPU     10.55s WALL (       4 calls)

     Called by init_run:
     wfcinit      :      0.10s CPU      0.11s WALL (       1 calls)
     potinit      :      0.10s CPU      0.10s WALL (       1 calls)
     hinit0       :      0.18s CPU      0.19s WALL (       1 calls)

     Called by electrons:
     c_bands      :      8.15s CPU      8.57s WALL (      20 calls)
     sum_band     :      1.25s CPU      1.31s WALL (      20 calls)
     v_of_rho     :      0.21s CPU      0.22s WALL (      21 calls)
     newd         :      0.44s CPU      0.45s WALL (      20 calls)
     mix_rho      :      0.02s CPU      0.02s WALL (      20 calls)

     Called by c_bands:
     init_us_2    :      0.21s CPU      0.22s WALL (    1155 calls)
     cegterg      :      7.98s CPU      8.40s WALL (     140 calls)

     Called by *egterg:
     cdiaghg      :      0.44s CPU      0.45s WALL (     543 calls)
     h_psi        :      4.17s CPU      4.54s WALL (     578 calls)
     s_psi        :      0.41s CPU      0.42s WALL (     578 calls)
     g_psi        :      0.04s CPU      0.04s WALL (     431 calls)

     Called by h_psi:
     h_psi:calbec :      0.39s CPU      0.44s WALL (     578 calls)
     vloc_psi     :      2.88s CPU      3.16s WALL (     578 calls)
     add_vuspsi   :      0.39s CPU      0.42s WALL (     578 calls)

     General routines
     calbec       :      0.96s CPU      1.03s WALL (    1178 calls)
     fft          :      0.11s CPU      0.11s WALL (     226 calls)
     ffts         :      0.00s CPU      0.01s WALL (      20 calls)
     fftw         :      3.04s CPU      3.32s WALL (   26716 calls)
     fftc         :     60.39s CPU     63.82s WALL (  201600 calls)
     fftcw        :      0.34s CPU      0.39s WALL (    2520 calls)

     Parallel routines
     fft_scatt_xy :      4.77s CPU      5.05s WALL (  231082 calls)
     fft_scatt_yz :     32.16s CPU     33.88s WALL (  231082 calls)

     EXX routines
     exx_grid     :      0.00s CPU      0.00s WALL (       1 calls)
     exxinit      :      2.05s CPU      2.86s WALL (       4 calls)
     vexx         :   1402.50s CPU   1412.09s WALL (      28 calls)
     matcalc      :      0.38s CPU      0.40s WALL (     432 calls)
     aceupdate    :      0.01s CPU      0.01s WALL (      28 calls)
     vexxace      :      0.63s CPU      0.65s WALL (     355 calls)
     aceinit      :   1402.54s CPU   1412.14s WALL (      28 calls)

     EXX+US  routines
     becxx        :      0.00s CPU      0.00s WALL (       4 calls)
     addusxx      :    659.43s CPU    663.62s WALL (  100800 calls)
     newdxx       :    650.11s CPU    651.09s WALL (  100800 calls)
     qvan_init    :      1.70s CPU      1.73s WALL (     112 calls)
     nlxx_pot     :      0.17s CPU      0.18s WALL (     840 calls)

     PWSCF        :  23m35.38s CPU  23m46.41s WALL


   This run was terminated on:  16:49: 7   1Jan2023            

=------------------------------------------------------------------------------=
   JOB DONE.
=------------------------------------------------------------------------------=
