
     Program BANDS v.6.7MaX starts on 13Aug2021 at 12:25: 4 

     This program is part of the open-source Quantum ESPRESSO suite
     for quantum simulation of materials; please cite
         "P. Giannozzi et al., J. Phys.:Condens. Matter 21 395502 (2009);
         "P. Giannozzi et al., J. Phys.:Condens. Matter 29 465901 (2017);
          URL http://www.quantum-espresso.org", 
     in publications or presentations arising from this work. More details at
     http://www.quantum-espresso.org/quote

     Parallel version (MPI), running on     8 processors

     MPI processes distributed on     1 nodes
     R & G space division:  proc/nbgrp/npool/nimage =       8

     Reading xml data from directory:

     ./out/GeTe.save/

     IMPORTANT: XC functional enforced from input :
     Exchange-correlation= PBESOL
                           (   1   4  10   8   0   0   0)
     Any further DFT definition will be discarded
     Please, verify this is what you really want

 
     Parallelization info
     --------------------
     sticks:   dense  smooth     PW     G-vecs:    dense   smooth      PW
     Min         177      90     26                 4453     1578     260
     Max         178      91     27                 4457     1579     262
     Sum        1417     721    211                35629    12627    2085
 
     Reading collected, re-writing distributed wavefunctions
     high-symmetry point:  0.5000-0.0000 0.6124   x coordinate   0.0000
     high-symmetry point:  0.5000 0.2887 0.2041   x coordinate   0.5000
     high-symmetry point:  0.6250-0.0722 0.4082   x coordinate   0.9330
     high-symmetry point:  0.5000-0.2887 0.4082   x coordinate   1.1830
     high-symmetry point:  0.0000 0.0000 0.0000   x coordinate   1.8901
     high-symmetry point:  0.3750 0.2165 0.6124   x coordinate   2.6401

     Plottable bands (eV) written to file GeTe.bands.gnu
     Bands written to file GeTe.bands

 **************************************************************************

                    xk=(   0.50000,  -0.00000,   0.61237  )

     point group C_2  (2)   
     there are  2 classes
     the character table:

       E     C2   
A      1.00  1.00
B      1.00 -1.00

     the symmetry operations in each class and the name of the first element:

     E        1
                                                                 
     C2       2
                                                                 

     Band symmetry, C_2  (2)    point group:

     e(  1 -  1) =    -17.68198  eV     1   --> B              
     e(  2 -  2) =    -17.67887  eV     1   --> A              
     e(  3 -  3) =    -17.67299  eV     1   --> A              
     e(  4 -  4) =    -17.67284  eV     1   --> B              
     e(  5 -  5) =    -17.67070  eV     1   --> A              
     e(  6 -  6) =     -3.58544  eV     1   --> B              
     e(  7 -  7) =     -0.92206  eV     1   --> A              
     e(  8 -  9) =      2.48125  eV     2   --> A              
     e(  8 -  9) =      2.48125  eV     2   --> B              
     e( 10 - 10) =      6.78667  eV     1   --> A              
     e( 11 - 11) =      8.12893  eV     1   --> B              
     e( 12 - 13) =     12.82800  eV     2   --> A              
     e( 12 - 13) =     12.82800  eV     2   --> B              
     e( 14 - 15) =     13.48271  eV     2   --> A              
     e( 14 - 15) =     13.48271  eV     2   --> B              
     e( 16 - 16) =     18.94229  eV     1   --> A              
     e( 17 - 17) =     19.12824  eV     1   --> B              
     e( 18 - 18) =     20.45903  eV     1   --> B              
     e( 19 - 19) =     21.14185  eV     1   --> B              
     e( 20 - 20) =     21.14196  eV     1   --> A              
     e( 21 - 21) =     21.32272  eV     1   --> A              
     e( 22 - 22) =     24.56839  eV     1   --> B              
     e( 23 - 23) =     24.87518  eV     1   --> A              
     e( 24 - 25) =     25.55642  eV     2   --> A              
     e( 24 - 25) =     25.55642  eV     2   --> B              
     e( 26 - 26) =     28.05577  eV     1   --> A              
     e( 27 - 27) =     28.15711  eV     1   --> B              
     e( 28 - 29) =     29.38046  eV     2   --> A              
     e( 28 - 29) =     29.38046  eV     2   --> B              
     e( 30 - 30) =     29.93785  eV     1   --> A              

 **************************************************************************

 **************************************************************************

                    xk=(   0.50000,   0.00577,   0.60421  )

     point group C_1 (1)    
     there are  1 classes
     the character table:

       E    
A      1.00

     the symmetry operations in each class and the name of the first element:

     E        1
                                                                 

     Band symmetry, C_1 (1)     point group:

     e(  1 -  1) =    -17.68198  eV     1   --> A              
     e(  2 -  2) =    -17.67887  eV     1   --> A              
     e(  3 -  3) =    -17.67298  eV     1   --> A              
     e(  4 -  4) =    -17.67284  eV     1   --> A              
     e(  5 -  5) =    -17.67070  eV     1   --> A              
     e(  6 -  6) =     -3.58598  eV     1   --> A              
     e(  7 -  7) =     -0.92329  eV     1   --> A              
     e(  8 -  8) =      2.48339  eV     1   --> A              
     e(  9 -  9) =      2.48401  eV     1   --> A              
     e( 10 - 10) =      6.78621  eV     1   --> A              
     e( 11 - 11) =      8.12822  eV     1   --> A              
     e( 12 - 12) =     12.82749  eV     1   --> A              
     e( 13 - 13) =     12.82857  eV     1   --> A              
     e( 14 - 14) =     13.47916  eV     1   --> A              
     e( 15 - 15) =     13.48020  eV     1   --> A              
     e( 16 - 16) =     18.94489  eV     1   --> A              
     e( 17 - 17) =     19.13093  eV     1   --> A              
     e( 18 - 18) =     20.42422  eV     1   --> A              
     e( 19 - 19) =     21.05083  eV     1   --> A              
     e( 20 - 20) =     21.18235  eV     1   --> A              
     e( 21 - 21) =     21.41907  eV     1   --> A              
     e( 22 - 22) =     24.56019  eV     1   --> A              
     e( 23 - 23) =     24.85991  eV     1   --> A              
     e( 24 - 24) =     25.55712  eV     1   --> A              
     e( 25 - 25) =     25.56379  eV     1   --> A              
     e( 26 - 26) =     28.06008  eV     1   --> A              
     e( 27 - 27) =     28.16134  eV     1   --> A              
     e( 28 - 28) =     29.38135  eV     1   --> A              
     e( 29 - 29) =     29.38193  eV     1   --> A              
     e( 30 - 30) =     29.89736  eV     1   --> A              

 **************************************************************************

 **************************************************************************

                    xk=(   0.50000,   0.01155,   0.59604  )

     Band symmetry, C_1 (1)     point group:

     e(  1 -  1) =    -17.68197  eV     1   --> A              
     e(  2 -  2) =    -17.67888  eV     1   --> A              
     e(  3 -  3) =    -17.67298  eV     1   --> A              
     e(  4 -  4) =    -17.67284  eV     1   --> A              
     e(  5 -  5) =    -17.67070  eV     1   --> A              
     e(  6 -  6) =     -3.58759  eV     1   --> A              
     e(  7 -  7) =     -0.92698  eV     1   --> A              
     e(  8 -  8) =      2.48959  eV     1   --> A              
     e(  9 -  9) =      2.49227  eV     1   --> A              
     e( 10 - 10) =      6.78482  eV     1   --> A              
     e( 11 - 11) =      8.12612  eV     1   --> A              
     e( 12 - 12) =     12.82570  eV     1   --> A              
     e( 13 - 13) =     12.82999  eV     1   --> A              
     e( 14 - 14) =     13.46871  eV     1   --> A              
     e( 15 - 15) =     13.47264  eV     1   --> A              
     e( 16 - 16) =     18.95249  eV     1   --> A              
     e( 17 - 17) =     19.13884  eV     1   --> A              
     e( 18 - 18) =     20.33759  eV     1   --> A              
     e( 19 - 19) =     20.90999  eV     1   --> A              
     e( 20 - 20) =     21.28572  eV     1   --> A              
     e( 21 - 21) =     21.57594  eV     1   --> A              
     e( 22 - 22) =     24.53582  eV     1   --> A              
     e( 23 - 23) =     24.81627  eV     1   --> A              
     e( 24 - 24) =     25.55904  eV     1   --> A              
     e( 25 - 25) =     25.58369  eV     1   --> A              
     e( 26 - 26) =     28.07295  eV     1   --> A              
     e( 27 - 27) =     28.17390  eV     1   --> A              
     e( 28 - 28) =     29.38301  eV     1   --> A              
     e( 29 - 29) =     29.38565  eV     1   --> A              
     e( 30 - 30) =     29.80366  eV     1   --> A              

 **************************************************************************

 **************************************************************************

                    xk=(   0.50000,   0.01732,   0.58788  )

     Band symmetry, C_1 (1)     point group:

     e(  1 -  1) =    -17.68196  eV     1   --> A              
     e(  2 -  2) =    -17.67888  eV     1   --> A              
     e(  3 -  3) =    -17.67298  eV     1   --> A              
     e(  4 -  4) =    -17.67284  eV     1   --> A              
     e(  5 -  5) =    -17.67071  eV     1   --> A              
     e(  6 -  6) =     -3.59027  eV     1   --> A              
     e(  7 -  7) =     -0.93307  eV     1   --> A              
     e(  8 -  8) =      2.49992  eV     1   --> A              
     e(  9 -  9) =      2.50600  eV     1   --> A              
     e( 10 - 10) =      6.78252  eV     1   --> A              
     e( 11 - 11) =      8.12264  eV     1   --> A              
     e( 12 - 12) =     12.82194  eV     1   --> A              
     e( 13 - 13) =     12.83185  eV     1   --> A              
     e( 14 - 14) =     13.45192  eV     1   --> A              
     e( 15 - 15) =     13.46095  eV     1   --> A              
     e( 16 - 16) =     18.96481  eV     1   --> A              
     e( 17 - 17) =     19.15148  eV     1   --> A              
     e( 18 - 18) =     20.22665  eV     1   --> A              
     e( 19 - 19) =     20.76805  eV     1   --> A              
     e( 20 - 20) =     21.42490  eV     1   --> A              
     e( 21 - 21) =     21.74477  eV     1   --> A              
     e( 22 - 22) =     24.49611  eV     1   --> A              
     e( 23 - 23) =     24.74928  eV     1   --> A              
     e( 24 - 24) =     25.56168  eV     1   --> A              
     e( 25 - 25) =     25.61138  eV     1   --> A              
     e( 26 - 26) =     28.09424  eV     1   --> A              
     e( 27 - 27) =     28.19450  eV     1   --> A              
     e( 28 - 28) =     29.38161  eV     1   --> A              
     e( 29 - 29) =     29.38863  eV     1   --> A              
     e( 30 - 30) =     29.69385  eV     1   --> A              

 **************************************************************************

 **************************************************************************

                    xk=(   0.50000,   0.02309,   0.57971  )

     Band symmetry, C_1 (1)     point group:

     e(  1 -  1) =    -17.68195  eV     1   --> A              
     e(  2 -  2) =    -17.67889  eV     1   --> A              
     e(  3 -  3) =    -17.67297  eV     1   --> A              
     e(  4 -  4) =    -17.67284  eV     1   --> A              
     e(  5 -  5) =    -17.67072  eV     1   --> A              
     e(  6 -  6) =     -3.59399  eV     1   --> A              
     e(  7 -  7) =     -0.94151  eV     1   --> A              
     e(  8 -  8) =      2.51435  eV     1   --> A              
     e(  9 -  9) =      2.52511  eV     1   --> A              
     e( 10 - 10) =      6.77932  eV     1   --> A              
     e( 11 - 11) =      8.11779  eV     1   --> A              
     e( 12 - 12) =     12.81501  eV     1   --> A              
     e( 13 - 13) =     12.83329  eV     1   --> A              
     e( 14 - 14) =     13.42983  eV     1   --> A              
     e( 15 - 15) =     13.44652  eV     1   --> A              
     e( 16 - 16) =     18.98130  eV     1   --> A              
     e( 17 - 17) =     19.16790  eV     1   --> A              
     e( 18 - 18) =     20.10789  eV     1   --> A              
     e( 19 - 19) =     20.63072  eV     1   --> A              
     e( 20 - 20) =     21.58409  eV     1   --> A              
     e( 21 - 21) =     21.92019  eV     1   --> A              
     e( 22 - 22) =     24.44221  eV     1   --> A              
     e( 23 - 23) =     24.66418  eV     1   --> A              
     e( 24 - 24) =     25.56441  eV     1   --> A              
     e( 25 - 25) =     25.64207  eV     1   --> A              
     e( 26 - 26) =     28.12372  eV     1   --> A              
     e( 27 - 27) =     28.22266  eV     1   --> A              
     e( 28 - 28) =     29.36513  eV     1   --> A              
     e( 29 - 29) =     29.38051  eV     1   --> A              
     e( 30 - 30) =     29.59357  eV     1   --> A              

 **************************************************************************

 **************************************************************************

                    xk=(   0.50000,   0.02887,   0.57155  )

     Band symmetry, C_1 (1)     point group:

     e(  1 -  1) =    -17.68193  eV     1   --> A              
     e(  2 -  2) =    -17.67890  eV     1   --> A              
     e(  3 -  3) =    -17.67296  eV     1   --> A              
     e(  4 -  4) =    -17.67285  eV     1   --> A              
     e(  5 -  5) =    -17.67074  eV     1   --> A              
     e(  6 -  6) =     -3.59874  eV     1   --> A              
     e(  7 -  7) =     -0.95220  eV     1   --> A              
     e(  8 -  8) =      2.53285  eV     1   --> A              
     e(  9 -  9) =      2.54952  eV     1   --> A              
     e( 10 - 10) =      6.77525  eV     1   --> A              
     e( 11 - 11) =      8.11163  eV     1   --> A              
     e( 12 - 12) =     12.80320  eV     1   --> A              
     e( 13 - 13) =     12.83294  eV     1   --> A              
     e( 14 - 14) =     13.40406  eV     1   --> A              
     e( 15 - 15) =     13.43131  eV     1   --> A              
     e( 16 - 16) =     19.00112  eV     1   --> A              
     e( 17 - 17) =     19.18645  eV     1   --> A              
     e( 18 - 18) =     19.99009  eV     1   --> A              
     e( 19 - 19) =     20.49988  eV     1   --> A              
     e( 20 - 20) =     21.75581  eV     1   --> A              
     e( 21 - 21) =     22.10080  eV     1   --> A              
     e( 22 - 22) =     24.37550  eV     1   --> A              
     e( 23 - 23) =     24.56517  eV     1   --> A              
     e( 24 - 24) =     25.56661  eV     1   --> A              
     e( 25 - 25) =     25.67216  eV     1   --> A              
     e( 26 - 26) =     28.16106  eV     1   --> A              
     e( 27 - 27) =     28.25766  eV     1   --> A              
     e( 28 - 28) =     29.31023  eV     1   --> A              
     e( 29 - 29) =     29.33434  eV     1   --> A              
     e( 30 - 30) =     29.53564  eV     1   --> A              

 **************************************************************************

 **************************************************************************

                    xk=(   0.50000,   0.03464,   0.56338  )

     Band symmetry, C_1 (1)     point group:

     e(  1 -  1) =    -17.68191  eV     1   --> A              
     e(  2 -  2) =    -17.67891  eV     1   --> A              
     e(  3 -  3) =    -17.67296  eV     1   --> A              
     e(  4 -  4) =    -17.67285  eV     1   --> A              
     e(  5 -  5) =    -17.67076  eV     1   --> A              
     e(  6 -  6) =     -3.60449  eV     1   --> A              
     e(  7 -  7) =     -0.96502  eV     1   --> A              
     e(  8 -  8) =      2.55540  eV     1   --> A              
     e(  9 -  9) =      2.57910  eV     1   --> A              
     e( 10 - 10) =      6.77032  eV     1   --> A              
     e( 11 - 11) =      8.10418  eV     1   --> A              
     e( 12 - 12) =     12.78442  eV     1   --> A              
     e( 13 - 13) =     12.82880  eV     1   --> A              
     e( 14 - 14) =     13.37693  eV     1   --> A              
     e( 15 - 15) =     13.41775  eV     1   --> A              
     e( 16 - 16) =     19.02308  eV     1   --> A              
     e( 17 - 17) =     19.20413  eV     1   --> A              
     e( 18 - 18) =     19.87943  eV     1   --> A              
     e( 19 - 19) =     20.37695  eV     1   --> A              
     e( 20 - 20) =     21.93638  eV     1   --> A              
     e( 21 - 21) =     22.28599  eV     1   --> A              
     e( 22 - 22) =     24.29735  eV     1   --> A              
     e( 23 - 23) =     24.45527  eV     1   --> A              
     e( 24 - 24) =     25.56770  eV     1   --> A              
     e( 25 - 25) =     25.69938  eV     1   --> A              
     e( 26 - 26) =     28.20580  eV     1   --> A              
     e( 27 - 27) =     28.29848  eV     1   --> A              
     e( 28 - 28) =     29.21712  eV     1   --> A              
     e( 29 - 29) =     29.24329  eV     1   --> A              
     e( 30 - 30) =     29.52925  eV     1   --> A              

 **************************************************************************

 **************************************************************************

                    xk=(   0.50000,   0.04041,   0.55522  )

     Band symmetry, C_1 (1)     point group:

     e(  1 -  1) =    -17.68189  eV     1   --> A              
     e(  2 -  2) =    -17.67893  eV     1   --> A              
     e(  3 -  4) =    -17.67294  eV     2   -->   2 A              
     e(  5 -  5) =    -17.67078  eV     1   --> A              
     e(  6 -  6) =     -3.61119  eV     1   --> A              
     e(  7 -  7) =     -0.97985  eV     1   --> A              
     e(  8 -  8) =      2.58196  eV     1   --> A              
     e(  9 -  9) =      2.61373  eV     1   --> A              
     e( 10 - 10) =      6.76457  eV     1   --> A              
     e( 11 - 11) =      8.09551  eV     1   --> A              
     e( 12 - 12) =     12.75643  eV     1   --> A              
     e( 13 - 13) =     12.81810  eV     1   --> A              
     e( 14 - 14) =     13.35152  eV     1   --> A              
     e( 15 - 15) =     13.40840  eV     1   --> A              
     e( 16 - 16) =     19.04550  eV     1   --> A              
     e( 17 - 17) =     19.21564  eV     1   --> A              
     e( 18 - 18) =     19.78269  eV     1   --> A              
     e( 19 - 19) =     20.26352  eV     1   --> A              
     e( 20 - 20) =     22.12377  eV     1   --> A              
     e( 21 - 21) =     22.47537  eV     1   --> A              
     e( 22 - 22) =     24.20913  eV     1   --> A              
     e( 23 - 23) =     24.33663  eV     1   --> A              
     e( 24 - 24) =     25.56732  eV     1   --> A              
     e( 25 - 25) =     25.72247  eV     1   --> A              
     e( 26 - 26) =     28.25733  eV     1   --> A              
     e( 27 - 27) =     28.34361  eV     1   --> A              
     e( 28 - 28) =     29.11045  eV     1   --> A              
     e( 29 - 29) =     29.13533  eV     1   --> A              
     e( 30 - 30) =     29.54744  eV     1   --> A              

 **************************************************************************

 **************************************************************************

                    xk=(   0.50000,   0.04619,   0.54705  )

     Band symmetry, C_1 (1)     point group:

     e(  1 -  1) =    -17.68186  eV     1   --> A              
     e(  2 -  2) =    -17.67894  eV     1   --> A              
     e(  3 -  4) =    -17.67293  eV     2   -->   2 A              
     e(  5 -  5) =    -17.67081  eV     1   --> A              
     e(  6 -  6) =     -3.61881  eV     1   --> A              
     e(  7 -  7) =     -0.99653  eV     1   --> A              
     e(  8 -  8) =      2.61248  eV     1   --> A              
     e(  9 -  9) =      2.65324  eV     1   --> A              
     e( 10 - 10) =      6.75803  eV     1   --> A              
     e( 11 - 11) =      8.08567  eV     1   --> A              
     e( 12 - 12) =     12.71735  eV     1   --> A              
     e( 13 - 13) =     12.79763  eV     1   --> A              
     e( 14 - 14) =     13.33145  eV     1   --> A              
     e( 15 - 15) =     13.40557  eV     1   --> A              
     e( 16 - 16) =     19.06608  eV     1   --> A              
     e( 17 - 17) =     19.21236  eV     1   --> A              
     e( 18 - 18) =     19.70910  eV     1   --> A              
     e( 19 - 19) =     20.16168  eV     1   --> A              
     e( 20 - 20) =     22.31672  eV     1   --> A              
     e( 21 - 21) =     22.66860  eV     1   --> A              
     e( 22 - 22) =     24.11211  eV     1   --> A              
     e( 23 - 23) =     24.21087  eV     1   --> A              
     e( 24 - 24) =     25.56529  eV     1   --> A              
     e( 25 - 25) =     25.74086  eV     1   --> A              
     e( 26 - 26) =     28.31484  eV     1   --> A              
     e( 27 - 27) =     28.39051  eV     1   --> A              
     e( 28 - 28) =     29.00471  eV     1   --> A              
     e( 29 - 29) =     29.02503  eV     1   --> A              
     e( 30 - 30) =     29.57618  eV     1   --> A              

 **************************************************************************

 **************************************************************************

                    xk=(   0.50000,   0.05196,   0.53889  )

     Band symmetry, C_1 (1)     point group:

     e(  1 -  1) =    -17.68183  eV     1   --> A              
     e(  2 -  2) =    -17.67896  eV     1   --> A              
     e(  3 -  4) =    -17.67292  eV     2   -->   2 A              
     e(  5 -  5) =    -17.67083  eV     1   --> A              
     e(  6 -  6) =     -3.62731  eV     1   --> A              
     e(  7 -  7) =     -1.01491  eV     1   --> A              
     e(  8 -  8) =      2.64690  eV     1   --> A              
     e(  9 -  9) =      2.69747  eV     1   --> A              
     e( 10 - 10) =      6.75076  eV     1   --> A              
     e( 11 - 11) =      8.07473  eV     1   --> A              
     e( 12 - 12) =     12.66606  eV     1   --> A              
     e( 13 - 13) =     12.76439  eV     1   --> A              
     e( 14 - 14) =     13.32009  eV     1   --> A              
     e( 15 - 15) =     13.41079  eV     1   --> A              
     e( 16 - 16) =     19.08174  eV     1   --> A              
     e( 17 - 17) =     19.18453  eV     1   --> A              
     e( 18 - 18) =     19.66860  eV     1   --> A              
     e( 19 - 19) =     20.07418  eV     1   --> A              
     e( 20 - 20) =     22.51425  eV     1   --> A              
     e( 21 - 21) =     22.86534  eV     1   --> A              
     e( 22 - 22) =     24.00750  eV     1   --> A              
     e( 23 - 23) =     24.07925  eV     1   --> A              
     e( 24 - 24) =     25.56159  eV     1   --> A              
     e( 25 - 25) =     25.75443  eV     1   --> A              
     e( 26 - 26) =     28.37699  eV     1   --> A              
     e( 27 - 27) =     28.43417  eV     1   --> A              
     e( 28 - 28) =     28.90869  eV     1   --> A              
     e( 29 - 29) =     28.91750  eV     1   --> A              
     e( 30 - 30) =     29.61093  eV     1   --> A              

 **************************************************************************

 **************************************************************************

                    xk=(   0.50000,   0.05774,   0.53072  )

     Band symmetry, C_1 (1)     point group:

     e(  1 -  1) =    -17.68180  eV     1   --> A              
     e(  2 -  2) =    -17.67898  eV     1   --> A              
     e(  3 -  4) =    -17.67290  eV     2   -->   2 A              
     e(  5 -  5) =    -17.67086  eV     1   --> A              
     e(  6 -  6) =     -3.63664  eV     1   --> A              
     e(  7 -  7) =     -1.03482  eV     1   --> A              
     e(  8 -  8) =      2.68519  eV     1   --> A              
     e(  9 -  9) =      2.74626  eV     1   --> A              
     e( 10 - 10) =      6.74279  eV     1   --> A              
     e( 11 - 11) =      8.06276  eV     1   --> A              
     e( 12 - 12) =     12.60237  eV     1   --> A              
     e( 13 - 13) =     12.71668  eV     1   --> A              
     e( 14 - 14) =     13.31957  eV     1   --> A              
     e( 15 - 15) =     13.42466  eV     1   --> A              
     e( 16 - 16) =     19.08873  eV     1   --> A              
     e( 17 - 17) =     19.12936  eV     1   --> A              
     e( 18 - 18) =     19.66391  eV     1   --> A              
     e( 19 - 19) =     20.00440  eV     1   --> A              
     e( 20 - 20) =     22.71551  eV     1   --> A              
     e( 21 - 21) =     23.06516  eV     1   --> A              
     e( 22 - 22) =     23.89648  eV     1   --> A              
     e( 23 - 23) =     23.94291  eV     1   --> A              
     e( 24 - 24) =     25.55640  eV     1   --> A              
     e( 25 - 25) =     25.76338  eV     1   --> A              
     e( 26 - 26) =     28.44114  eV     1   --> A              
     e( 27 - 27) =     28.46372  eV     1   --> A              
     e( 28 - 28) =     28.81634  eV     1   --> A              
     e( 29 - 29) =     28.83435  eV     1   --> A              
     e( 30 - 30) =     29.64759  eV     1   --> A              

 **************************************************************************

 **************************************************************************

                    xk=(   0.50000,   0.06351,   0.52256  )

     Band symmetry, C_1 (1)     point group:

     e(  1 -  1) =    -17.68177  eV     1   --> A              
     e(  2 -  2) =    -17.67901  eV     1   --> A              
     e(  3 -  4) =    -17.67289  eV     2   -->   2 A              
     e(  5 -  5) =    -17.67090  eV     1   --> A              
     e(  6 -  6) =     -3.64674  eV     1   --> A              
     e(  7 -  7) =     -1.05610  eV     1   --> A              
     e(  8 -  8) =      2.72726  eV     1   --> A              
     e(  9 -  9) =      2.79942  eV     1   --> A              
     e( 10 - 10) =      6.73417  eV     1   --> A              
     e( 11 - 11) =      8.04984  eV     1   --> A              
     e( 12 - 12) =     12.52690  eV     1   --> A              
     e( 13 - 13) =     12.65450  eV     1   --> A              
     e( 14 - 14) =     13.33030  eV     1   --> A              
     e( 15 - 15) =     13.44702  eV     1   --> A              
     e( 16 - 16) =     19.05395  eV     1   --> A              
     e( 17 - 17) =     19.08317  eV     1   --> A              
     e( 18 - 18) =     19.68767  eV     1   --> A              
     e( 19 - 19) =     19.95583  eV     1   --> A              
     e( 20 - 20) =     22.91940  eV     1   --> A              
     e( 21 - 21) =     23.26722  eV     1   --> A              
     e( 22 - 22) =     23.78043  eV     1   --> A              
     e( 23 - 23) =     23.80316  eV     1   --> A              
     e( 24 - 24) =     25.55001  eV     1   --> A              
     e( 25 - 25) =     25.76813  eV     1   --> A              
     e( 26 - 26) =     28.46011  eV     1   --> A              
     e( 27 - 27) =     28.49863  eV     1   --> A              
     e( 28 - 28) =     28.73015  eV     1   --> A              
     e( 29 - 29) =     28.80078  eV     1   --> A              
     e( 30 - 30) =     29.68703  eV     1   --> A              

 **************************************************************************

 **************************************************************************

                    xk=(   0.50000,   0.06928,   0.51439  )

     Band symmetry, C_1 (1)     point group:

     e(  1 -  1) =    -17.68173  eV     1   --> A              
     e(  2 -  2) =    -17.67903  eV     1   --> A              
     e(  3 -  4) =    -17.67287  eV     2   -->   2 A              
     e(  5 -  5) =    -17.67093  eV     1   --> A              
     e(  6 -  6) =     -3.65755  eV     1   --> A              
     e(  7 -  7) =     -1.07858  eV     1   --> A              
     e(  8 -  8) =      2.77306  eV     1   --> A              
     e(  9 -  9) =      2.85679  eV     1   --> A              
     e( 10 - 10) =      6.72496  eV     1   --> A              
     e( 11 - 11) =      8.03605  eV     1   --> A              
     e( 12 - 12) =     12.44069  eV     1   --> A              
     e( 13 - 13) =     12.57917  eV     1   --> A              
     e( 14 - 14) =     13.35136  eV     1   --> A              
     e( 15 - 15) =     13.47726  eV     1   --> A              
     e( 16 - 16) =     18.96756  eV     1   --> A              
     e( 17 - 17) =     19.06231  eV     1   --> A              
     e( 18 - 18) =     19.73028  eV     1   --> A              
     e( 19 - 19) =     19.93078  eV     1   --> A              
     e( 20 - 20) =     23.12375  eV     1   --> A              
     e( 21 - 21) =     23.46693  eV     1   --> A              
     e( 22 - 22) =     23.66172  eV     1   --> A              
     e( 23 - 23) =     23.66498  eV     1   --> A              
     e( 24 - 24) =     25.54290  eV     1   --> A              
     e( 25 - 25) =     25.76924  eV     1   --> A              
     e( 26 - 26) =     28.41453  eV     1   --> A              
     e( 27 - 27) =     28.51426  eV     1   --> A              
     e( 28 - 28) =     28.69370  eV     1   --> A              
     e( 29 - 29) =     28.81647  eV     1   --> A              
     e( 30 - 30) =     29.72860  eV     1   --> A              

 **************************************************************************

 **************************************************************************

                    xk=(   0.50000,   0.07506,   0.50623  )

     Band symmetry, C_1 (1)     point group:

     e(  1 -  1) =    -17.68169  eV     1   --> A              
     e(  2 -  2) =    -17.67906  eV     1   --> A              
     e(  3 -  4) =    -17.67287  eV     2   -->   2 A              
     e(  5 -  5) =    -17.67097  eV     1   --> A              
     e(  6 -  6) =     -3.66902  eV     1   --> A              
     e(  7 -  7) =     -1.10210  eV     1   --> A              
     e(  8 -  8) =      2.82252  eV     1   --> A              
     e(  9 -  9) =      2.91817  eV     1   --> A              
     e( 10 - 10) =      6.71521  eV     1   --> A              
     e( 11 - 11) =      8.02147  eV     1   --> A              
     e( 12 - 12) =     12.34493  eV     1   --> A              
     e( 13 - 13) =     12.49250  eV     1   --> A              
     e( 14 - 14) =     13.38137  eV     1   --> A              
     e( 15 - 15) =     13.51460  eV     1   --> A              
     e( 16 - 16) =     18.87652  eV     1   --> A              
     e( 17 - 17) =     19.02577  eV     1   --> A              
     e( 18 - 18) =     19.78500  eV     1   --> A              
     e( 19 - 19) =     19.92915  eV     1   --> A              
     e( 20 - 20) =     23.31742  eV     1   --> A              
     e( 21 - 21) =     23.49793  eV     1   --> A              
     e( 22 - 22) =     23.55152  eV     1   --> A              
     e( 23 - 23) =     23.69489  eV     1   --> A              
     e( 24 - 24) =     25.53570  eV     1   --> A              
     e( 25 - 25) =     25.76743  eV     1   --> A              
     e( 26 - 26) =     28.34275  eV     1   --> A              
     e( 27 - 27) =     28.45855  eV     1   --> A              
     e( 28 - 28) =     28.73584  eV     1   --> A              
     e( 29 - 29) =     28.86509  eV     1   --> A              
     e( 30 - 30) =     29.77143  eV     1   --> A              

 **************************************************************************

 **************************************************************************

                    xk=(   0.50000,   0.08083,   0.49806  )

     Band symmetry, C_1 (1)     point group:

     e(  1 -  1) =    -17.68164  eV     1   --> A              
     e(  2 -  2) =    -17.67909  eV     1   --> A              
     e(  3 -  4) =    -17.67287  eV     2   -->   2 A              
     e(  5 -  5) =    -17.67101  eV     1   --> A              
     e(  6 -  6) =     -3.68109  eV     1   --> A              
     e(  7 -  7) =     -1.12649  eV     1   --> A              
     e(  8 -  8) =      2.87557  eV     1   --> A              
     e(  9 -  9) =      2.98340  eV     1   --> A              
     e( 10 - 10) =      6.70498  eV     1   --> A              
     e( 11 - 11) =      8.00618  eV     1   --> A              
     e( 12 - 12) =     12.24079  eV     1   --> A              
     e( 13 - 13) =     12.39624  eV     1   --> A              
     e( 14 - 14) =     13.41894  eV     1   --> A              
     e( 15 - 15) =     13.55829  eV     1   --> A              
     e( 16 - 16) =     18.78438  eV     1   --> A              
     e( 17 - 17) =     18.97567  eV     1   --> A              
     e( 18 - 18) =     19.84780  eV     1   --> A              
     e( 19 - 19) =     19.94833  eV     1   --> A              
     e( 20 - 20) =     23.35495  eV     1   --> A              
     e( 21 - 21) =     23.36386  eV     1   --> A              
     e( 22 - 22) =     23.58623  eV     1   --> A              
     e( 23 - 23) =     23.89821  eV     1   --> A              
     e( 24 - 24) =     25.52930  eV     1   --> A              
     e( 25 - 25) =     25.76357  eV     1   --> A              
     e( 26 - 26) =     28.26077  eV     1   --> A              
     e( 27 - 27) =     28.37747  eV     1   --> A              
     e( 28 - 28) =     28.80982  eV     1   --> A              
     e( 29 - 29) =     28.92987  eV     1   --> A              
     e( 30 - 30) =     29.81465  eV     1   --> A              

 **************************************************************************

 **************************************************************************

                    xk=(   0.50000,   0.08660,   0.48990  )

     Band symmetry, C_1 (1)     point group:

     e(  1 -  1) =    -17.68160  eV     1   --> A              
     e(  2 -  2) =    -17.67912  eV     1   --> A              
     e(  3 -  4) =    -17.67288  eV     2   -->   2 A              
     e(  5 -  5) =    -17.67105  eV     1   --> A              
     e(  6 -  6) =     -3.69370  eV     1   --> A              
     e(  7 -  7) =     -1.15158  eV     1   --> A              
     e(  8 -  8) =      2.93212  eV     1   --> A              
     e(  9 -  9) =      3.05231  eV     1   --> A              
     e( 10 - 10) =      6.69434  eV     1   --> A              
     e( 11 - 11) =      7.99026  eV     1   --> A              
     e( 12 - 12) =     12.12933  eV     1   --> A              
     e( 13 - 13) =     12.29189  eV     1   --> A              
     e( 14 - 14) =     13.46296  eV     1   --> A              
     e( 15 - 15) =     13.60767  eV     1   --> A              
     e( 16 - 16) =     18.69305  eV     1   --> A              
     e( 17 - 17) =     18.91545  eV     1   --> A              
     e( 18 - 18) =     19.91622  eV     1   --> A              
     e( 19 - 19) =     19.98435  eV     1   --> A              
     e( 20 - 20) =     23.20536  eV     1   --> A              
     e( 21 - 21) =     23.24948  eV     1   --> A              
     e( 22 - 22) =     23.77887  eV     1   --> A              
     e( 23 - 23) =     24.10731  eV     1   --> A              
     e( 24 - 24) =     25.52494  eV     1   --> A              
     e( 25 - 25) =     25.75875  eV     1   --> A              
     e( 26 - 26) =     28.17614  eV     1   --> A              
     e( 27 - 27) =     28.29267  eV     1   --> A              
     e( 28 - 28) =     28.89305  eV     1   --> A              
     e( 29 - 29) =     29.00231  eV     1   --> A              
     e( 30 - 30) =     29.85735  eV     1   --> A              

 **************************************************************************

 **************************************************************************

                    xk=(   0.50000,   0.09238,   0.48173  )

     Band symmetry, C_1 (1)     point group:

     e(  1 -  1) =    -17.68155  eV     1   --> A              
     e(  2 -  2) =    -17.67915  eV     1   --> A              
     e(  3 -  3) =    -17.67288  eV     1   --> A              
     e(  4 -  4) =    -17.67278  eV     1   --> A              
     e(  5 -  5) =    -17.67109  eV     1   --> A              
     e(  6 -  6) =     -3.70677  eV     1   --> A              
     e(  7 -  7) =     -1.17725  eV     1   --> A              
     e(  8 -  8) =      2.99211  eV     1   --> A              
     e(  9 -  9) =      3.12472  eV     1   --> A              
     e( 10 - 10) =      6.68334  eV     1   --> A              
     e( 11 - 11) =      7.97382  eV     1   --> A              
     e( 12 - 12) =     12.01145  eV     1   --> A              
     e( 13 - 13) =     12.18065  eV     1   --> A              
     e( 14 - 14) =     13.51258  eV     1   --> A              
     e( 15 - 15) =     13.66218  eV     1   --> A              
     e( 16 - 16) =     18.60357  eV     1   --> A              
     e( 17 - 17) =     18.84856  eV     1   --> A              
     e( 18 - 18) =     19.98859  eV     1   --> A              
     e( 19 - 19) =     20.03313  eV     1   --> A              
     e( 20 - 20) =     23.05417  eV     1   --> A              
     e( 21 - 21) =     23.11907  eV     1   --> A              
     e( 22 - 22) =     23.98359  eV     1   --> A              
     e( 23 - 23) =     24.31659  eV     1   --> A              
     e( 24 - 24) =     25.52442  eV     1   --> A              
     e( 25 - 25) =     25.75446  eV     1   --> A              
     e( 26 - 26) =     28.09201  eV     1   --> A              
     e( 27 - 27) =     28.20882  eV     1   --> A              
     e( 28 - 28) =     28.97974  eV     1   --> A              
     e( 29 - 29) =     29.07804  eV     1   --> A              
     e( 30 - 30) =     29.89865  eV     1   --> A              

 **************************************************************************

 **************************************************************************

                    xk=(   0.50000,   0.09815,   0.47357  )

     Band symmetry, C_1 (1)     point group:

     e(  1 -  1) =    -17.68150  eV     1   --> A              
     e(  2 -  2) =    -17.67918  eV     1   --> A              
     e(  3 -  3) =    -17.67289  eV     1   --> A              
     e(  4 -  4) =    -17.67276  eV     1   --> A              
     e(  5 -  5) =    -17.67113  eV     1   --> A              
     e(  6 -  6) =     -3.72025  eV     1   --> A              
     e(  7 -  7) =     -1.20333  eV     1   --> A              
     e(  8 -  8) =      3.05546  eV     1   --> A              
     e(  9 -  9) =      3.20048  eV     1   --> A              
     e( 10 - 10) =      6.67205  eV     1   --> A              
     e( 11 - 11) =      7.95692  eV     1   --> A              
     e( 12 - 12) =     11.88798  eV     1   --> A              
     e( 13 - 13) =     12.06349  eV     1   --> A              
     e( 14 - 14) =     13.56715  eV     1   --> A              
     e( 15 - 15) =     13.72137  eV     1   --> A              
     e( 16 - 16) =     18.51654  eV     1   --> A              
     e( 17 - 17) =     18.77783  eV     1   --> A              
     e( 18 - 18) =     20.06359  eV     1   --> A              
     e( 19 - 19) =     20.09119  eV     1   --> A              
     e( 20 - 20) =     22.90257  eV     1   --> A              
     e( 21 - 21) =     22.98524  eV     1   --> A              
     e( 22 - 22) =     24.18572  eV     1   --> A              
     e( 23 - 23) =     24.52346  eV     1   --> A              
     e( 24 - 24) =     25.53051  eV     1   --> A              
     e( 25 - 25) =     25.75288  eV     1   --> A              
     e( 26 - 26) =     28.00976  eV     1   --> A              
     e( 27 - 27) =     28.12716  eV     1   --> A              
     e( 28 - 28) =     29.06715  eV     1   --> A              
     e( 29 - 29) =     29.15403  eV     1   --> A              
     e( 30 - 30) =     29.93784  eV     1   --> A              

 **************************************************************************

 **************************************************************************

                    xk=(   0.50000,   0.10392,   0.46540  )

     Band symmetry, C_1 (1)     point group:

     e(  1 -  1) =    -17.68145  eV     1   --> A              
     e(  2 -  2) =    -17.67922  eV     1   --> A              
     e(  3 -  3) =    -17.67290  eV     1   --> A              
     e(  4 -  4) =    -17.67273  eV     1   --> A              
     e(  5 -  5) =    -17.67118  eV     1   --> A              
     e(  6 -  6) =     -3.73407  eV     1   --> A              
     e(  7 -  7) =     -1.22969  eV     1   --> A              
     e(  8 -  8) =      3.12207  eV     1   --> A              
     e(  9 -  9) =      3.27943  eV     1   --> A              
     e( 10 - 10) =      6.66054  eV     1   --> A              
     e( 11 - 11) =      7.93966  eV     1   --> A              
     e( 12 - 12) =     11.75962  eV     1   --> A              
     e( 13 - 13) =     11.94120  eV     1   --> A              
     e( 14 - 14) =     13.62620  eV     1   --> A              
     e( 15 - 15) =     13.78487  eV     1   --> A              
     e( 16 - 16) =     18.43229  eV     1   --> A              
     e( 17 - 17) =     18.70531  eV     1   --> A              
     e( 18 - 18) =     20.14005  eV     1   --> A              
     e( 19 - 19) =     20.15566  eV     1   --> A              
     e( 20 - 20) =     22.75156  eV     1   --> A              
     e( 21 - 21) =     22.85061  eV     1   --> A              
     e( 22 - 22) =     24.37919  eV     1   --> A              
     e( 23 - 23) =     24.72426  eV     1   --> A              
     e( 24 - 24) =     25.54751  eV     1   --> A              
     e( 25 - 25) =     25.75758  eV     1   --> A              
     e( 26 - 26) =     27.93009  eV     1   --> A              
     e( 27 - 27) =     28.04810  eV     1   --> A              
     e( 28 - 28) =     29.15295  eV     1   --> A              
     e( 29 - 29) =     29.22732  eV     1   --> A              
     e( 30 - 30) =     29.97460  eV     1   --> A              

 **************************************************************************

 **************************************************************************

                    xk=(   0.50000,   0.10970,   0.45724  )

     Band symmetry, C_1 (1)     point group:

     e(  1 -  1) =    -17.68140  eV     1   --> A              
     e(  2 -  2) =    -17.67925  eV     1   --> A              
     e(  3 -  3) =    -17.67291  eV     1   --> A              
     e(  4 -  4) =    -17.67271  eV     1   --> A              
     e(  5 -  5) =    -17.67122  eV     1   --> A              
     e(  6 -  6) =     -3.74817  eV     1   --> A              
     e(  7 -  7) =     -1.25621  eV     1   --> A              
     e(  8 -  8) =      3.19188  eV     1   --> A              
     e(  9 -  9) =      3.36142  eV     1   --> A              
     e( 10 - 10) =      6.64887  eV     1   --> A              
     e( 11 - 11) =      7.92212  eV     1   --> A              
     e( 12 - 12) =     11.62699  eV     1   --> A              
     e( 13 - 13) =     11.81445  eV     1   --> A              
     e( 14 - 14) =     13.68935  eV     1   --> A              
     e( 15 - 15) =     13.85235  eV     1   --> A              
     e( 16 - 16) =     18.35103  eV     1   --> A              
     e( 17 - 17) =     18.63245  eV     1   --> A              
     e( 18 - 18) =     20.21674  eV     1   --> A              
     e( 19 - 19) =     20.22413  eV     1   --> A              
     e( 20 - 20) =     22.60220  eV     1   --> A              
     e( 21 - 21) =     22.71675  eV     1   --> A              
     e( 22 - 22) =     24.55672  eV     1   --> A              
     e( 23 - 23) =     24.91268  eV     1   --> A              
     e( 24 - 24) =     25.58199  eV     1   --> A              
     e( 25 - 25) =     25.77479  eV     1   --> A              
     e( 26 - 26) =     27.85331  eV     1   --> A              
     e( 27 - 27) =     27.97171  eV     1   --> A              
     e( 28 - 28) =     29.23430  eV     1   --> A              
     e( 29 - 29) =     29.29439  eV     1   --> A              
     e( 30 - 30) =     30.00953  eV     1   --> A              

 **************************************************************************

 **************************************************************************

                    xk=(   0.50000,   0.11547,   0.44907  )

     Band symmetry, C_1 (1)     point group:

     e(  1 -  1) =    -17.68134  eV     1   --> A              
     e(  2 -  2) =    -17.67929  eV     1   --> A              
     e(  3 -  3) =    -17.67292  eV     1   --> A              
     e(  4 -  4) =    -17.67268  eV     1   --> A              
     e(  5 -  5) =    -17.67127  eV     1   --> A              
     e(  6 -  6) =     -3.76249  eV     1   --> A              
     e(  7 -  7) =     -1.28276  eV     1   --> A              
     e(  8 -  8) =      3.26478  eV     1   --> A              
     e(  9 -  9) =      3.44630  eV     1   --> A              
     e( 10 - 10) =      6.63712  eV     1   --> A              
     e( 11 - 11) =      7.90437  eV     1   --> A              
     e( 12 - 12) =     11.49063  eV     1   --> A              
     e( 13 - 13) =     11.68378  eV     1   --> A              
     e( 14 - 14) =     13.75631  eV     1   --> A              
     e( 15 - 15) =     13.92356  eV     1   --> A              
     e( 16 - 16) =     18.27283  eV     1   --> A              
     e( 17 - 17) =     18.56021  eV     1   --> A              
     e( 18 - 18) =     20.29224  eV     1   --> A              
     e( 19 - 19) =     20.29430  eV     1   --> A              
     e( 20 - 20) =     22.45578  eV     1   --> A              
     e( 21 - 21) =     22.58521  eV     1   --> A              
     e( 22 - 22) =     24.70889  eV     1   --> A              
     e( 23 - 23) =     25.07796  eV     1   --> A              
     e( 24 - 24) =     25.64281  eV     1   --> A              
     e( 25 - 25) =     25.81508  eV     1   --> A              
     e( 26 - 26) =     27.77960  eV     1   --> A              
     e( 27 - 27) =     27.89795  eV     1   --> A              
     e( 28 - 28) =     29.30732  eV     1   --> A              
     e( 29 - 29) =     29.35066  eV     1   --> A              
     e( 30 - 30) =     30.04460  eV     1   --> A              

 **************************************************************************

 **************************************************************************

                    xk=(   0.50000,   0.12124,   0.44091  )

     Band symmetry, C_1 (1)     point group:

     e(  1 -  1) =    -17.68129  eV     1   --> A              
     e(  2 -  2) =    -17.67933  eV     1   --> A              
     e(  3 -  3) =    -17.67293  eV     1   --> A              
     e(  4 -  4) =    -17.67266  eV     1   --> A              
     e(  5 -  5) =    -17.67131  eV     1   --> A              
     e(  6 -  6) =     -3.77695  eV     1   --> A              
     e(  7 -  7) =     -1.30924  eV     1   --> A              
     e(  8 -  8) =      3.34071  eV     1   --> A              
     e(  9 -  9) =      3.53394  eV     1   --> A              
     e( 10 - 10) =      6.62536  eV     1   --> A              
     e( 11 - 11) =      7.88649  eV     1   --> A              
     e( 12 - 12) =     11.35104  eV     1   --> A              
     e( 13 - 13) =     11.54969  eV     1   --> A              
     e( 14 - 14) =     13.82685  eV     1   --> A              
     e( 15 - 15) =     13.99826  eV     1   --> A              
     e( 16 - 16) =     18.19778  eV     1   --> A              
     e( 17 - 17) =     18.48927  eV     1   --> A              
     e( 18 - 18) =     20.36383  eV     1   --> A              
     e( 19 - 19) =     20.36483  eV     1   --> A              
     e( 20 - 20) =     22.31405  eV     1   --> A              
     e( 21 - 21) =     22.45784  eV     1   --> A              
     e( 22 - 22) =     24.82673  eV     1   --> A              
     e( 23 - 23) =     25.20560  eV     1   --> A              
     e( 24 - 24) =     25.73845  eV     1   --> A              
     e( 25 - 25) =     25.89266  eV     1   --> A              
     e( 26 - 26) =     27.70911  eV     1   --> A              
     e( 27 - 27) =     27.82672  eV     1   --> A              
     e( 28 - 28) =     29.36678  eV     1   --> A              
     e( 29 - 29) =     29.39069  eV     1   --> A              
     e( 30 - 30) =     30.08232  eV     1   --> A              

 **************************************************************************

 **************************************************************************

                    xk=(   0.50000,   0.12702,   0.43274  )

     Band symmetry, C_1 (1)     point group:

     e(  1 -  1) =    -17.68123  eV     1   --> A              
     e(  2 -  2) =    -17.67937  eV     1   --> A              
     e(  3 -  3) =    -17.67294  eV     1   --> A              
     e(  4 -  4) =    -17.67263  eV     1   --> A              
     e(  5 -  5) =    -17.67135  eV     1   --> A              
     e(  6 -  6) =     -3.79151  eV     1   --> A              
     e(  7 -  7) =     -1.33554  eV     1   --> A              
     e(  8 -  8) =      3.41956  eV     1   --> A              
     e(  9 -  9) =      3.62419  eV     1   --> A              
     e( 10 - 10) =      6.61367  eV     1   --> A              
     e( 11 - 11) =      7.86857  eV     1   --> A              
     e( 12 - 12) =     11.20866  eV     1   --> A              
     e( 13 - 13) =     11.41260  eV     1   --> A              
     e( 14 - 14) =     13.90077  eV     1   --> A              
     e( 15 - 15) =     14.07625  eV     1   --> A              
     e( 16 - 16) =     18.12585  eV     1   --> A              
     e( 17 - 17) =     18.42008  eV     1   --> A              
     e( 18 - 18) =     20.42986  eV     1   --> A              
     e( 19 - 19) =     20.43224  eV     1   --> A              
     e( 20 - 20) =     22.17938  eV     1   --> A              
     e( 21 - 21) =     22.33696  eV     1   --> A              
     e( 22 - 22) =     24.90713  eV     1   --> A              
     e( 23 - 23) =     25.28676  eV     1   --> A              
     e( 24 - 24) =     25.87121  eV     1   --> A              
     e( 25 - 25) =     26.01584  eV     1   --> A              
     e( 26 - 26) =     27.64191  eV     1   --> A              
     e( 27 - 27) =     27.75787  eV     1   --> A              
     e( 28 - 28) =     29.40662  eV     1   --> A              
     e( 29 - 29) =     29.40928  eV     1   --> A              
     e( 30 - 30) =     30.12012  eV     1   --> A              

 **************************************************************************

 **************************************************************************

                    xk=(   0.50000,   0.13279,   0.42458  )

     Band symmetry, C_1 (1)     point group:

     e(  1 -  1) =    -17.68118  eV     1   --> A              
     e(  2 -  2) =    -17.67941  eV     1   --> A              
     e(  3 -  3) =    -17.67295  eV     1   --> A              
     e(  4 -  4) =    -17.67260  eV     1   --> A              
     e(  5 -  5) =    -17.67140  eV     1   --> A              
     e(  6 -  6) =     -3.80610  eV     1   --> A              
     e(  7 -  7) =     -1.36157  eV     1   --> A              
     e(  8 -  8) =      3.50125  eV     1   --> A              
     e(  9 -  9) =      3.71693  eV     1   --> A              
     e( 10 - 10) =      6.60212  eV     1   --> A              
     e( 11 - 11) =      7.85066  eV     1   --> A              
     e( 12 - 12) =     11.06390  eV     1   --> A              
     e( 13 - 13) =     11.27288  eV     1   --> A              
     e( 14 - 14) =     13.97788  eV     1   --> A              
     e( 15 - 15) =     14.15735  eV     1   --> A              
     e( 16 - 16) =     18.05705  eV     1   --> A              
     e( 17 - 17) =     18.35295  eV     1   --> A              
     e( 18 - 18) =     20.48874  eV     1   --> A              
     e( 19 - 19) =     20.49150  eV     1   --> A              
     e( 20 - 20) =     22.05514  eV     1   --> A              
     e( 21 - 21) =     22.22564  eV     1   --> A              
     e( 22 - 22) =     24.95529  eV     1   --> A              
     e( 23 - 23) =     25.32786  eV     1   --> A              
     e( 24 - 24) =     26.03484  eV     1   --> A              
     e( 25 - 25) =     26.17745  eV     1   --> A              
     e( 26 - 26) =     27.57818  eV     1   --> A              
     e( 27 - 27) =     27.69120  eV     1   --> A              
     e( 28 - 28) =     29.40370  eV     1   --> A              
     e( 29 - 29) =     29.42200  eV     1   --> A              
     e( 30 - 30) =     30.17013  eV     1   --> A              

 **************************************************************************

 **************************************************************************

                    xk=(   0.50000,   0.13856,   0.41641  )

     Band symmetry, C_1 (1)     point group:

     e(  1 -  1) =    -17.68112  eV     1   --> A              
     e(  2 -  2) =    -17.67945  eV     1   --> A              
     e(  3 -  3) =    -17.67296  eV     1   --> A              
     e(  4 -  4) =    -17.67257  eV     1   --> A              
     e(  5 -  5) =    -17.67144  eV     1   --> A              
     e(  6 -  6) =     -3.82065  eV     1   --> A              
     e(  7 -  7) =     -1.38723  eV     1   --> A              
     e(  8 -  8) =      3.58570  eV     1   --> A              
     e(  9 -  9) =      3.81201  eV     1   --> A              
     e( 10 - 10) =      6.59078  eV     1   --> A              
     e( 11 - 11) =      7.83285  eV     1   --> A              
     e( 12 - 12) =     10.91713  eV     1   --> A              
     e( 13 - 13) =     11.13087  eV     1   --> A              
     e( 14 - 14) =     14.05804  eV     1   --> A              
     e( 15 - 15) =     14.24139  eV     1   --> A              
     e( 16 - 16) =     17.99136  eV     1   --> A              
     e( 17 - 17) =     18.28809  eV     1   --> A              
     e( 18 - 18) =     20.53558  eV     1   --> A              
     e( 19 - 19) =     20.53873  eV     1   --> A              
     e( 20 - 20) =     21.94599  eV     1   --> A              
     e( 21 - 21) =     22.12781  eV     1   --> A              
     e( 22 - 22) =     24.98020  eV     1   --> A              
     e( 23 - 23) =     25.34274  eV     1   --> A              
     e( 24 - 24) =     26.21874  eV     1   --> A              
     e( 25 - 25) =     26.36251  eV     1   --> A              
     e( 26 - 26) =     27.51823  eV     1   --> A              
     e( 27 - 27) =     27.62651  eV     1   --> A              
     e( 28 - 28) =     29.37521  eV     1   --> A              
     e( 29 - 29) =     29.41218  eV     1   --> A              
     e( 30 - 30) =     30.23574  eV     1   --> A              

 **************************************************************************

 **************************************************************************

                    xk=(   0.50000,   0.14434,   0.40825  )

     Band symmetry, C_1 (1)     point group:

     e(  1 -  1) =    -17.68106  eV     1   --> A              
     e(  2 -  2) =    -17.67949  eV     1   --> A              
     e(  3 -  3) =    -17.67298  eV     1   --> A              
     e(  4 -  4) =    -17.67255  eV     1   --> A              
     e(  5 -  5) =    -17.67148  eV     1   --> A              
     e(  6 -  6) =     -3.83512  eV     1   --> A              
     e(  7 -  7) =     -1.41245  eV     1   --> A              
     e(  8 -  8) =      3.67279  eV     1   --> A              
     e(  9 -  9) =      3.90931  eV     1   --> A              
     e( 10 - 10) =      6.57975  eV     1   --> A              
     e( 11 - 11) =      7.81519  eV     1   --> A              
     e( 12 - 12) =     10.76868  eV     1   --> A              
     e( 13 - 13) =     10.98688  eV     1   --> A              
     e( 14 - 14) =     14.14110  eV     1   --> A              
     e( 15 - 15) =     14.32822  eV     1   --> A              
     e( 16 - 16) =     17.92875  eV     1   --> A              
     e( 17 - 17) =     18.22563  eV     1   --> A              
     e( 18 - 18) =     20.56419  eV     1   --> A              
     e( 19 - 19) =     20.56924  eV     1   --> A              
     e( 20 - 20) =     21.85799  eV     1   --> A              
     e( 21 - 21) =     22.04825  eV     1   --> A              
     e( 22 - 22) =     24.98981  eV     1   --> A              
     e( 23 - 23) =     25.34231  eV     1   --> A              
     e( 24 - 24) =     26.41247  eV     1   --> A              
     e( 25 - 25) =     26.55842  eV     1   --> A              
     e( 26 - 26) =     27.46270  eV     1   --> A              
     e( 27 - 27) =     27.56356  eV     1   --> A              
     e( 28 - 28) =     29.32876  eV     1   --> A              
     e( 29 - 29) =     29.38146  eV     1   --> A              
     e( 30 - 30) =     30.31676  eV     1   --> A              

 **************************************************************************

 **************************************************************************

                    xk=(   0.50000,   0.15011,   0.40008  )

     Band symmetry, C_1 (1)     point group:

     e(  1 -  1) =    -17.68101  eV     1   --> A              
     e(  2 -  2) =    -17.67953  eV     1   --> A              
     e(  3 -  3) =    -17.67299  eV     1   --> A              
     e(  4 -  4) =    -17.67252  eV     1   --> A              
     e(  5 -  5) =    -17.67152  eV     1   --> A              
     e(  6 -  6) =     -3.84946  eV     1   --> A              
     e(  7 -  7) =     -1.43714  eV     1   --> A              
     e(  8 -  8) =      3.76244  eV     1   --> A              
     e(  9 -  9) =      4.00869  eV     1   --> A              
     e( 10 - 10) =      6.56911  eV     1   --> A              
     e( 11 - 11) =      7.79775  eV     1   --> A              
     e( 12 - 12) =     10.61888  eV     1   --> A              
     e( 13 - 13) =     10.84119  eV     1   --> A              
     e( 14 - 14) =     14.22694  eV     1   --> A              
     e( 15 - 15) =     14.41768  eV     1   --> A              
     e( 16 - 16) =     17.86919  eV     1   --> A              
     e( 17 - 17) =     18.16567  eV     1   --> A              
     e( 18 - 18) =     20.56788  eV     1   --> A              
     e( 19 - 19) =     20.57813  eV     1   --> A              
     e( 20 - 20) =     21.79772  eV     1   --> A              
     e( 21 - 21) =     21.99193  eV     1   --> A              
     e( 22 - 22) =     24.98961  eV     1   --> A              
     e( 23 - 23) =     25.33293  eV     1   --> A              
     e( 24 - 24) =     26.60642  eV     1   --> A              
     e( 25 - 25) =     26.75634  eV     1   --> A              
     e( 26 - 26) =     27.41298  eV     1   --> A              
     e( 27 - 27) =     27.50204  eV     1   --> A              
     e( 28 - 28) =     29.27148  eV     1   --> A              
     e( 29 - 29) =     29.33770  eV     1   --> A              
     e( 30 - 30) =     30.41073  eV     1   --> A              

 **************************************************************************

 **************************************************************************

                    xk=(   0.50000,   0.15588,   0.39192  )

     Band symmetry, C_1 (1)     point group:

     e(  1 -  1) =    -17.68095  eV     1   --> A              
     e(  2 -  2) =    -17.67957  eV     1   --> A              
     e(  3 -  3) =    -17.67301  eV     1   --> A              
     e(  4 -  4) =    -17.67249  eV     1   --> A              
     e(  5 -  5) =    -17.67156  eV     1   --> A              
     e(  6 -  6) =     -3.86360  eV     1   --> A              
     e(  7 -  7) =     -1.46125  eV     1   --> A              
     e(  8 -  8) =      3.85455  eV     1   --> A              
     e(  9 -  9) =      4.11000  eV     1   --> A              
     e( 10 - 10) =      6.55897  eV     1   --> A              
     e( 11 - 11) =      7.78059  eV     1   --> A              
     e( 12 - 12) =     10.46803  eV     1   --> A              
     e( 13 - 13) =     10.69407  eV     1   --> A              
     e( 14 - 14) =     14.31542  eV     1   --> A              
     e( 15 - 15) =     14.50963  eV     1   --> A              
     e( 16 - 16) =     17.81266  eV     1   --> A              
     e( 17 - 17) =     18.10826  eV     1   --> A              
     e( 18 - 18) =     20.54168  eV     1   --> A              
     e( 19 - 19) =     20.56154  eV     1   --> A              
     e( 20 - 20) =     21.77011  eV     1   --> A              
     e( 21 - 21) =     21.96274  eV     1   --> A              
     e( 22 - 22) =     24.98307  eV     1   --> A              
     e( 23 - 23) =     25.31814  eV     1   --> A              
     e( 24 - 24) =     26.78960  eV     1   --> A              
     e( 25 - 25) =     26.94909  eV     1   --> A              
     e( 26 - 26) =     27.37258  eV     1   --> A              
     e( 27 - 27) =     27.44164  eV     1   --> A              
     e( 28 - 28) =     29.21179  eV     1   --> A              
     e( 29 - 29) =     29.29029  eV     1   --> A              
     e( 30 - 30) =     30.51478  eV     1   --> A              

 **************************************************************************

 **************************************************************************

                    xk=(   0.50000,   0.16166,   0.38375  )

     Band symmetry, C_1 (1)     point group:

     e(  1 -  1) =    -17.68089  eV     1   --> A              
     e(  2 -  2) =    -17.67961  eV     1   --> A              
     e(  3 -  3) =    -17.67303  eV     1   --> A              
     e(  4 -  4) =    -17.67246  eV     1   --> A              
     e(  5 -  5) =    -17.67159  eV     1   --> A              
     e(  6 -  6) =     -3.87749  eV     1   --> A              
     e(  7 -  7) =     -1.48471  eV     1   --> A              
     e(  8 -  8) =      3.94902  eV     1   --> A              
     e(  9 -  9) =      4.21311  eV     1   --> A              
     e( 10 - 10) =      6.54942  eV     1   --> A              
     e( 11 - 11) =      7.76376  eV     1   --> A              
     e( 12 - 12) =     10.31641  eV     1   --> A              
     e( 13 - 13) =     10.54574  eV     1   --> A              
     e( 14 - 14) =     14.40642  eV     1   --> A              
     e( 15 - 15) =     14.60393  eV     1   --> A              
     e( 16 - 16) =     17.75911  eV     1   --> A              
     e( 17 - 17) =     18.05344  eV     1   --> A              
     e( 18 - 18) =     20.48487  eV     1   --> A              
     e( 19 - 19) =     20.51826  eV     1   --> A              
     e( 20 - 20) =     21.77584  eV     1   --> A              
     e( 21 - 21) =     21.96197  eV     1   --> A              
     e( 22 - 22) =     24.97236  eV     1   --> A              
     e( 23 - 23) =     25.29989  eV     1   --> A              
     e( 24 - 24) =     26.94465  eV     1   --> A              
     e( 25 - 25) =     27.12937  eV     1   --> A              
     e( 26 - 26) =     27.35074  eV     1   --> A              
     e( 27 - 27) =     27.38212  eV     1   --> A              
     e( 28 - 28) =     29.15939  eV     1   --> A              
     e( 29 - 29) =     29.24951  eV     1   --> A              
     e( 30 - 30) =     30.62654  eV     1   --> A              

 **************************************************************************

 **************************************************************************

                    xk=(   0.50000,   0.16743,   0.37559  )

     Band symmetry, C_1 (1)     point group:

     e(  1 -  1) =    -17.68084  eV     1   --> A              
     e(  2 -  2) =    -17.67965  eV     1   --> A              
     e(  3 -  3) =    -17.67305  eV     1   --> A              
     e(  4 -  4) =    -17.67243  eV     1   --> A              
     e(  5 -  5) =    -17.67163  eV     1   --> A              
     e(  6 -  6) =     -3.89110  eV     1   --> A              
     e(  7 -  7) =     -1.50745  eV     1   --> A              
     e(  8 -  8) =      4.04572  eV     1   --> A              
     e(  9 -  9) =      4.31785  eV     1   --> A              
     e( 10 - 10) =      6.54058  eV     1   --> A              
     e( 11 - 11) =      7.74732  eV     1   --> A              
     e( 12 - 12) =     10.16428  eV     1   --> A              
     e( 13 - 13) =     10.39644  eV     1   --> A              
     e( 14 - 14) =     14.49981  eV     1   --> A              
     e( 15 - 15) =     14.70044  eV     1   --> A              
     e( 16 - 16) =     17.70855  eV     1   --> A              
     e( 17 - 17) =     18.00122  eV     1   --> A              
     e( 18 - 18) =     20.40129  eV     1   --> A              
     e( 19 - 19) =     20.45017  eV     1   --> A              
     e( 20 - 20) =     21.81106  eV     1   --> A              
     e( 21 - 21) =     21.98779  eV     1   --> A              
     e( 22 - 22) =     24.95888  eV     1   --> A              
     e( 23 - 23) =     25.27934  eV     1   --> A              
     e( 24 - 24) =     27.04227  eV     1   --> A              
     e( 25 - 25) =     27.28509  eV     1   --> A              
     e( 26 - 26) =     27.32690  eV     1   --> A              
     e( 27 - 27) =     27.36698  eV     1   --> A              
     e( 28 - 28) =     29.12572  eV     1   --> A              
     e( 29 - 29) =     29.22649  eV     1   --> A              
     e( 30 - 30) =     30.74429  eV     1   --> A              

 **************************************************************************

 **************************************************************************

                    xk=(   0.50000,   0.17321,   0.36742  )

     Band symmetry, C_1 (1)     point group:

     e(  1 -  1) =    -17.68078  eV     1   --> A              
     e(  2 -  2) =    -17.67969  eV     1   --> A              
     e(  3 -  3) =    -17.67307  eV     1   --> A              
     e(  4 -  4) =    -17.67241  eV     1   --> A              
     e(  5 -  5) =    -17.67166  eV     1   --> A              
     e(  6 -  6) =     -3.90437  eV     1   --> A              
     e(  7 -  7) =     -1.52943  eV     1   --> A              
     e(  8 -  8) =      4.14455  eV     1   --> A              
     e(  9 -  9) =      4.42405  eV     1   --> A              
     e( 10 - 10) =      6.53258  eV     1   --> A              
     e( 11 - 11) =      7.73131  eV     1   --> A              
     e( 12 - 12) =     10.01191  eV     1   --> A              
     e( 13 - 13) =     10.24636  eV     1   --> A              
     e( 14 - 14) =     14.59546  eV     1   --> A              
     e( 15 - 15) =     14.79899  eV     1   --> A              
     e( 16 - 16) =     17.66094  eV     1   --> A              
     e( 17 - 17) =     17.95160  eV     1   --> A              
     e( 18 - 18) =     20.29703  eV     1   --> A              
     e( 19 - 19) =     20.36132  eV     1   --> A              
     e( 20 - 20) =     21.86966  eV     1   --> A              
     e( 21 - 21) =     22.03618  eV     1   --> A              
     e( 22 - 22) =     24.94351  eV     1   --> A              
     e( 23 - 23) =     25.25718  eV     1   --> A              
     e( 24 - 24) =     27.06798  eV     1   --> A              
     e( 25 - 25) =     27.26007  eV     1   --> A              
     e( 26 - 26) =     27.42260  eV     1   --> A              
     e( 27 - 27) =     27.42428  eV     1   --> A              
     e( 28 - 28) =     29.12368  eV     1   --> A              
     e( 29 - 29) =     29.23287  eV     1   --> A              
     e( 30 - 30) =     30.86683  eV     1   --> A              

 **************************************************************************

 **************************************************************************

                    xk=(   0.50000,   0.17898,   0.35926  )

     Band symmetry, C_1 (1)     point group:

     e(  1 -  1) =    -17.68073  eV     1   --> A              
     e(  2 -  2) =    -17.67973  eV     1   --> A              
     e(  3 -  3) =    -17.67308  eV     1   --> A              
     e(  4 -  4) =    -17.67238  eV     1   --> A              
     e(  5 -  5) =    -17.67169  eV     1   --> A              
     e(  6 -  6) =     -3.91726  eV     1   --> A              
     e(  7 -  7) =     -1.55059  eV     1   --> A              
     e(  8 -  8) =      4.24538  eV     1   --> A              
     e(  9 -  9) =      4.53150  eV     1   --> A              
     e( 10 - 10) =      6.52559  eV     1   --> A              
     e( 11 - 11) =      7.71578  eV     1   --> A              
     e( 12 - 12) =      9.85956  eV     1   --> A              
     e( 13 - 13) =     10.09571  eV     1   --> A              
     e( 14 - 14) =     14.69324  eV     1   --> A              
     e( 15 - 15) =     14.89943  eV     1   --> A              
     e( 16 - 16) =     17.61629  eV     1   --> A              
     e( 17 - 17) =     17.90459  eV     1   --> A              
     e( 18 - 18) =     20.17808  eV     1   --> A              
     e( 19 - 19) =     20.25638  eV     1   --> A              
     e( 20 - 20) =     21.94569  eV     1   --> A              
     e( 21 - 21) =     22.10252  eV     1   --> A              
     e( 22 - 22) =     24.92687  eV     1   --> A              
     e( 23 - 23) =     25.23383  eV     1   --> A              
     e( 24 - 24) =     27.05155  eV     1   --> A              
     e( 25 - 25) =     27.19913  eV     1   --> A              
     e( 26 - 26) =     27.48198  eV     1   --> A              
     e( 27 - 27) =     27.51589  eV     1   --> A              
     e( 28 - 28) =     29.16540  eV     1   --> A              
     e( 29 - 29) =     29.27881  eV     1   --> A              
     e( 30 - 30) =     30.99331  eV     1   --> A              

 **************************************************************************

 **************************************************************************

                    xk=(   0.50000,   0.18475,   0.35109  )

     Band symmetry, C_1 (1)     point group:

     e(  1 -  1) =    -17.68068  eV     1   --> A              
     e(  2 -  2) =    -17.67977  eV     1   --> A              
     e(  3 -  3) =    -17.67310  eV     1   --> A              
     e(  4 -  4) =    -17.67235  eV     1   --> A              
     e(  5 -  5) =    -17.67171  eV     1   --> A              
     e(  6 -  6) =     -3.92973  eV     1   --> A              
     e(  7 -  7) =     -1.57090  eV     1   --> A              
     e(  8 -  8) =      4.34806  eV     1   --> A              
     e(  9 -  9) =      4.63998  eV     1   --> A              
     e( 10 - 10) =      6.51979  eV     1   --> A              
     e( 11 - 11) =      7.70077  eV     1   --> A              
     e( 12 - 12) =      9.70748  eV     1   --> A              
     e( 13 - 13) =      9.94467  eV     1   --> A              
     e( 14 - 14) =     14.79299  eV     1   --> A              
     e( 15 - 15) =     15.00159  eV     1   --> A              
     e( 16 - 16) =     17.57460  eV     1   --> A              
     e( 17 - 17) =     17.86016  eV     1   --> A              
     e( 18 - 18) =     20.04916  eV     1   --> A              
     e( 19 - 19) =     20.13956  eV     1   --> A              
     e( 20 - 20) =     22.03444  eV     1   --> A              
     e( 21 - 21) =     22.18262  eV     1   --> A              
     e( 22 - 22) =     24.90935  eV     1   --> A              
     e( 23 - 23) =     25.20952  eV     1   --> A              
     e( 24 - 24) =     27.01877  eV     1   --> A              
     e( 25 - 25) =     27.13566  eV     1   --> A              
     e( 26 - 26) =     27.50870  eV     1   --> A              
     e( 27 - 27) =     27.56932  eV     1   --> A              
     e( 28 - 28) =     29.25747  eV     1   --> A              
     e( 29 - 29) =     29.36965  eV     1   --> A              
     e( 30 - 30) =     31.12316  eV     1   --> A              

 **************************************************************************

 **************************************************************************

                    xk=(   0.50000,   0.19053,   0.34293  )

     Band symmetry, C_1 (1)     point group:

     e(  1 -  1) =    -17.68063  eV     1   --> A              
     e(  2 -  2) =    -17.67981  eV     1   --> A              
     e(  3 -  3) =    -17.67313  eV     1   --> A              
     e(  4 -  4) =    -17.67233  eV     1   --> A              
     e(  5 -  5) =    -17.67174  eV     1   --> A              
     e(  6 -  6) =     -3.94174  eV     1   --> A              
     e(  7 -  7) =     -1.59030  eV     1   --> A              
     e(  8 -  8) =      4.45245  eV     1   --> A              
     e(  9 -  9) =      4.74922  eV     1   --> A              
     e( 10 - 10) =      6.51540  eV     1   --> A              
     e( 11 - 11) =      7.68632  eV     1   --> A              
     e( 12 - 12) =      9.55594  eV     1   --> A              
     e( 13 - 13) =      9.79342  eV     1   --> A              
     e( 14 - 14) =     14.89456  eV     1   --> A              
     e( 15 - 15) =     15.10527  eV     1   --> A              
     e( 16 - 16) =     17.53591  eV     1   --> A              
     e( 17 - 17) =     17.81832  eV     1   --> A              
     e( 18 - 18) =     19.91370  eV     1   --> A              
     e( 19 - 19) =     20.01426  eV     1   --> A              
     e( 20 - 20) =     22.13253  eV     1   --> A              
     e( 21 - 21) =     22.27310  eV     1   --> A              
     e( 22 - 22) =     24.89122  eV     1   --> A              
     e( 23 - 23) =     25.18436  eV     1   --> A              
     e( 24 - 24) =     26.97905  eV     1   --> A              
     e( 25 - 25) =     27.06908  eV     1   --> A              
     e( 26 - 26) =     27.49785  eV     1   --> A              
     e( 27 - 27) =     27.58609  eV     1   --> A              
     e( 28 - 28) =     29.39788  eV     1   --> A              
     e( 29 - 29) =     29.50386  eV     1   --> A              
     e( 30 - 30) =     31.25246  eV     1   --> A              

 **************************************************************************

 **************************************************************************

                    xk=(   0.50000,   0.19630,   0.33476  )

     Band symmetry, C_1 (1)     point group:

     e(  1 -  1) =    -17.68058  eV     1   --> A              
     e(  2 -  2) =    -17.67985  eV     1   --> A              
     e(  3 -  3) =    -17.67315  eV     1   --> A              
     e(  4 -  4) =    -17.67231  eV     1   --> A              
     e(  5 -  5) =    -17.67176  eV     1   --> A              
     e(  6 -  6) =     -3.95325  eV     1   --> A              
     e(  7 -  7) =     -1.60877  eV     1   --> A              
     e(  8 -  8) =      4.55837  eV     1   --> A              
     e(  9 -  9) =      4.85888  eV     1   --> A              
     e( 10 - 10) =      6.51270  eV     1   --> A              
     e( 11 - 11) =      7.67245  eV     1   --> A              
     e( 12 - 12) =      9.40520  eV     1   --> A              
     e( 13 - 13) =      9.64213  eV     1   --> A              
     e( 14 - 14) =     14.99776  eV     1   --> A              
     e( 15 - 15) =     15.21027  eV     1   --> A              
     e( 16 - 16) =     17.50026  eV     1   --> A              
     e( 17 - 17) =     17.77904  eV     1   --> A              
     e( 18 - 18) =     19.77414  eV     1   --> A              
     e( 19 - 19) =     19.88301  eV     1   --> A              
     e( 20 - 20) =     22.23756  eV     1   --> A              
     e( 21 - 21) =     22.37144  eV     1   --> A              
     e( 22 - 22) =     24.87264  eV     1   --> A              
     e( 23 - 23) =     25.15836  eV     1   --> A              
     e( 24 - 24) =     26.93513  eV     1   --> A              
     e( 25 - 25) =     26.99853  eV     1   --> A              
     e( 26 - 26) =     27.45573  eV     1   --> A              
     e( 27 - 27) =     27.57462  eV     1   --> A              
     e( 28 - 28) =     29.57827  eV     1   --> A              
     e( 29 - 29) =     29.67473  eV     1   --> A              
     e( 30 - 30) =     31.38111  eV     1   --> A              

 **************************************************************************

 **************************************************************************

                    xk=(   0.50000,   0.20207,   0.32660  )

     Band symmetry, C_1 (1)     point group:

     e(  1 -  1) =    -17.68054  eV     1   --> A              
     e(  2 -  2) =    -17.67989  eV     1   --> A              
     e(  3 -  3) =    -17.67317  eV     1   --> A              
     e(  4 -  4) =    -17.67228  eV     1   --> A              
     e(  5 -  5) =    -17.67178  eV     1   --> A              
     e(  6 -  6) =     -3.96423  eV     1   --> A              
     e(  7 -  7) =     -1.62628  eV     1   --> A              
     e(  8 -  8) =      4.66561  eV     1   --> A              
     e(  9 -  9) =      4.96856  eV     1   --> A              
     e( 10 - 10) =      6.51204  eV     1   --> A              
     e( 11 - 11) =      7.65920  eV     1   --> A              
     e( 12 - 12) =      9.25556  eV     1   --> A              
     e( 13 - 13) =      9.49096  eV     1   --> A              
     e( 14 - 14) =     15.10240  eV     1   --> A              
     e( 15 - 15) =     15.31631  eV     1   --> A              
     e( 16 - 16) =     17.46771  eV     1   --> A              
     e( 17 - 17) =     17.74231  eV     1   --> A              
     e( 18 - 18) =     19.63223  eV     1   --> A              
     e( 19 - 19) =     19.74773  eV     1   --> A              
     e( 20 - 20) =     22.34782  eV     1   --> A              
     e( 21 - 21) =     22.47571  eV     1   --> A              
     e( 22 - 22) =     24.85368  eV     1   --> A              
[...]

 **************************************************************************

                    xk=(   0.31500,   0.18187,   0.51439  )

     Band symmetry, C_s (m)     point group:

     e(  1 -  1) =    -17.68123  eV     1   --> A'             
     e(  2 -  2) =    -17.67934  eV     1   --> A''            
     e(  3 -  3) =    -17.67307  eV     1   --> A'             
     e(  4 -  4) =    -17.67230  eV     1   --> A'             
     e(  5 -  5) =    -17.67156  eV     1   --> A''            
     e(  6 -  6) =     -3.79252  eV     1   --> A'             
     e(  7 -  7) =     -1.20814  eV     1   --> A'             
     e(  8 -  8) =      2.58470  eV     1   --> A'             
     e(  9 -  9) =      4.84653  eV     1   --> A''            
     e( 10 - 10) =      5.30756  eV     1   --> A'             
     e( 11 - 11) =      9.26415  eV     1   --> A''            
     e( 12 - 12) =      9.84584  eV     1   --> A'             
     e( 13 - 13) =     12.89205  eV     1   --> A'             
     e( 14 - 14) =     13.66206  eV     1   --> A'             
     e( 15 - 15) =     14.66463  eV     1   --> A'             
     e( 16 - 16) =     15.71569  eV     1   --> A''            
     e( 17 - 17) =     18.11892  eV     1   --> A'             
     e( 18 - 18) =     21.54872  eV     1   --> A'             
     e( 19 - 19) =     22.56877  eV     1   --> A''            
     e( 20 - 20) =     22.81590  eV     1   --> A'             
     e( 21 - 21) =     23.58992  eV     1   --> A''            
     e( 22 - 22) =     23.85583  eV     1   --> A'             
     e( 23 - 23) =     23.91256  eV     1   --> A''            
     e( 24 - 24) =     25.14600  eV     1   --> A'             
     e( 25 - 25) =     26.33447  eV     1   --> A'             
     e( 26 - 26) =     26.66891  eV     1   --> A''            
     e( 27 - 27) =     26.83244  eV     1   --> A'             
     e( 28 - 28) =     27.74272  eV     1   --> A''            
     e( 29 - 29) =     28.80731  eV     1   --> A'             
     e( 30 - 30) =     30.69750  eV     1   --> A'             

 **************************************************************************

 **************************************************************************

                    xk=(   0.32250,   0.18620,   0.52664  )

     Band symmetry, C_s (m)     point group:

     e(  1 -  1) =    -17.68136  eV     1   --> A'             
     e(  2 -  2) =    -17.67926  eV     1   --> A''            
     e(  3 -  3) =    -17.67317  eV     1   --> A'             
     e(  4 -  4) =    -17.67221  eV     1   --> A'             
     e(  5 -  5) =    -17.67150  eV     1   --> A''            
     e(  6 -  6) =     -3.75730  eV     1   --> A'             
     e(  7 -  7) =     -1.20402  eV     1   --> A'             
     e(  8 -  8) =      2.51420  eV     1   --> A'             
     e(  9 -  9) =      4.76091  eV     1   --> A''            
     e( 10 - 10) =      5.20805  eV     1   --> A'             
     e( 11 - 11) =      9.41090  eV     1   --> A''            
     e( 12 - 12) =      9.98244  eV     1   --> A'             
     e( 13 - 13) =     12.97926  eV     1   --> A'             
     e( 14 - 14) =     13.39323  eV     1   --> A'             
     e( 15 - 15) =     14.81204  eV     1   --> A'             
     e( 16 - 16) =     15.86817  eV     1   --> A''            
     e( 17 - 17) =     18.25119  eV     1   --> A'             
     e( 18 - 18) =     21.76186  eV     1   --> A'             
     e( 19 - 19) =     22.24913  eV     1   --> A''            
     e( 20 - 20) =     22.75209  eV     1   --> A'             
     e( 21 - 21) =     23.50339  eV     1   --> A''            
     e( 22 - 22) =     23.83838  eV     1   --> A''            
     e( 23 - 23) =     23.85488  eV     1   --> A'             
     e( 24 - 24) =     25.00832  eV     1   --> A'             
     e( 25 - 25) =     26.45118  eV     1   --> A'             
     e( 26 - 26) =     26.77391  eV     1   --> A'             
     e( 27 - 27) =     27.03151  eV     1   --> A''            
     e( 28 - 28) =     27.41804  eV     1   --> A''            
     e( 29 - 29) =     29.07029  eV     1   --> A'             
     e( 30 - 30) =     30.40647  eV     1   --> A'             

 **************************************************************************

 **************************************************************************

                    xk=(   0.33000,   0.19053,   0.53889  )

     Band symmetry, C_s (m)     point group:

     e(  1 -  1) =    -17.68148  eV     1   --> A'             
     e(  2 -  2) =    -17.67916  eV     1   --> A''            
     e(  3 -  3) =    -17.67327  eV     1   --> A'             
     e(  4 -  4) =    -17.67212  eV     1   --> A'             
     e(  5 -  5) =    -17.67143  eV     1   --> A''            
     e(  6 -  6) =     -3.72797  eV     1   --> A'             
     e(  7 -  7) =     -1.19007  eV     1   --> A'             
     e(  8 -  8) =      2.44613  eV     1   --> A'             
     e(  9 -  9) =      4.67816  eV     1   --> A''            
     e( 10 - 10) =      5.11076  eV     1   --> A'             
     e( 11 - 11) =      9.56100  eV     1   --> A''            
     e( 12 - 12) =     10.11976  eV     1   --> A'             
     e( 13 - 13) =     13.06588  eV     1   --> A'             
     e( 14 - 14) =     13.13077  eV     1   --> A'             
     e( 15 - 15) =     14.96357  eV     1   --> A'             
     e( 16 - 16) =     16.02414  eV     1   --> A''            
     e( 17 - 17) =     18.38672  eV     1   --> A'             
     e( 18 - 18) =     21.91857  eV     1   --> A'             
     e( 19 - 19) =     21.93318  eV     1   --> A''            
     e( 20 - 20) =     22.69320  eV     1   --> A'             
     e( 21 - 21) =     23.42033  eV     1   --> A''            
     e( 22 - 22) =     23.76382  eV     1   --> A''            
     e( 23 - 23) =     23.84610  eV     1   --> A'             
     e( 24 - 24) =     24.93373  eV     1   --> A'             
     e( 25 - 25) =     26.14304  eV     1   --> A'             
     e( 26 - 26) =     27.09696  eV     1   --> A''            
     e( 27 - 27) =     27.14852  eV     1   --> A'             
     e( 28 - 28) =     27.40107  eV     1   --> A''            
     e( 29 - 29) =     29.32662  eV     1   --> A'             
     e( 30 - 30) =     30.12187  eV     1   --> A'             

 **************************************************************************

 **************************************************************************

                    xk=(   0.33750,   0.19486,   0.55114  )

     Band symmetry, C_s (m)     point group:

     e(  1 -  1) =    -17.68161  eV     1   --> A'             
     e(  2 -  2) =    -17.67907  eV     1   --> A''            
     e(  3 -  3) =    -17.67338  eV     1   --> A'             
     e(  4 -  4) =    -17.67203  eV     1   --> A'             
     e(  5 -  5) =    -17.67137  eV     1   --> A''            
     e(  6 -  6) =     -3.70452  eV     1   --> A'             
     e(  7 -  7) =     -1.16649  eV     1   --> A'             
     e(  8 -  8) =      2.38058  eV     1   --> A'             
     e(  9 -  9) =      4.59842  eV     1   --> A''            
     e( 10 - 10) =      5.01570  eV     1   --> A'             
     e( 11 - 11) =      9.71416  eV     1   --> A''            
     e( 12 - 12) =     10.25734  eV     1   --> A'             
     e( 13 - 13) =     12.87552  eV     1   --> A'             
     e( 14 - 14) =     13.15165  eV     1   --> A'             
     e( 15 - 15) =     15.11921  eV     1   --> A'             
     e( 16 - 16) =     16.18358  eV     1   --> A''            
     e( 17 - 17) =     18.52515  eV     1   --> A'             
     e( 18 - 18) =     21.62131  eV     1   --> A''            
     e( 19 - 19) =     22.00441  eV     1   --> A'             
     e( 20 - 20) =     22.63921  eV     1   --> A'             
     e( 21 - 21) =     23.34069  eV     1   --> A''            
     e( 22 - 22) =     23.69019  eV     1   --> A''            
     e( 23 - 23) =     23.83293  eV     1   --> A'             
     e( 24 - 24) =     24.93521  eV     1   --> A'             
     e( 25 - 25) =     25.82139  eV     1   --> A'             
     e( 26 - 26) =     26.77955  eV     1   --> A''            
     e( 27 - 27) =     27.54488  eV     1   --> A'             
     e( 28 - 28) =     27.77590  eV     1   --> A''            
     e( 29 - 29) =     29.54452  eV     1   --> A'             
     e( 30 - 30) =     29.84391  eV     1   --> A'             

 **************************************************************************

 **************************************************************************

                    xk=(   0.34500,   0.19919,   0.56338  )

     Band symmetry, C_s (m)     point group:

     e(  1 -  1) =    -17.68174  eV     1   --> A'             
     e(  2 -  2) =    -17.67898  eV     1   --> A''            
     e(  3 -  3) =    -17.67349  eV     1   --> A'             
     e(  4 -  4) =    -17.67194  eV     1   --> A'             
     e(  5 -  5) =    -17.67130  eV     1   --> A''            
     e(  6 -  6) =     -3.68677  eV     1   --> A'             
     e(  7 -  7) =     -1.13370  eV     1   --> A'             
     e(  8 -  8) =      2.31760  eV     1   --> A'             
     e(  9 -  9) =      4.52180  eV     1   --> A''            
     e( 10 - 10) =      4.92286  eV     1   --> A'             
     e( 11 - 11) =      9.87012  eV     1   --> A''            
     e( 12 - 12) =     10.39454  eV     1   --> A'             
     e( 13 - 13) =     12.62839  eV     1   --> A'             
     e( 14 - 14) =     13.23628  eV     1   --> A'             
     e( 15 - 15) =     15.27895  eV     1   --> A'             
     e( 16 - 16) =     16.34645  eV     1   --> A''            
     e( 17 - 17) =     18.66617  eV     1   --> A'             
     e( 18 - 18) =     21.31388  eV     1   --> A''            
     e( 19 - 19) =     22.01395  eV     1   --> A'             
     e( 20 - 20) =     22.59007  eV     1   --> A'             
     e( 21 - 21) =     23.26444  eV     1   --> A''            
     e( 22 - 22) =     23.61831  eV     1   --> A''            
     e( 23 - 23) =     23.81615  eV     1   --> A'             
     e( 24 - 24) =     25.01926  eV     1   --> A'             
     e( 25 - 25) =     25.50165  eV     1   --> A'             
     e( 26 - 26) =     26.46588  eV     1   --> A''            
     e( 27 - 27) =     27.94764  eV     1   --> A'             
     e( 28 - 28) =     28.15490  eV     1   --> A''            
     e( 29 - 29) =     29.57285  eV     1   --> A'             
     e( 30 - 30) =     29.65627  eV     1   --> A'             

 **************************************************************************

 **************************************************************************

                    xk=(   0.35250,   0.20352,   0.57563  )

     Band symmetry, C_s (m)     point group:

     e(  1 -  1) =    -17.68187  eV     1   --> A'             
     e(  2 -  2) =    -17.67888  eV     1   --> A''            
     e(  3 -  3) =    -17.67361  eV     1   --> A'             
     e(  4 -  4) =    -17.67184  eV     1   --> A'             
     e(  5 -  5) =    -17.67124  eV     1   --> A''            
     e(  6 -  6) =     -3.67440  eV     1   --> A'             
     e(  7 -  7) =     -1.09229  eV     1   --> A'             
     e(  8 -  8) =      2.25727  eV     1   --> A'             
     e(  9 -  9) =      4.44839  eV     1   --> A''            
     e( 10 - 10) =      4.83227  eV     1   --> A'             
     e( 11 - 11) =     10.02858  eV     1   --> A''            
     e( 12 - 12) =     10.53041  eV     1   --> A'             
     e( 13 - 13) =     12.39056  eV     1   --> A'             
     e( 14 - 14) =     13.31947  eV     1   --> A'             
     e( 15 - 15) =     15.44276  eV     1   --> A'             
     e( 16 - 16) =     16.51272  eV     1   --> A''            
     e( 17 - 17) =     18.80945  eV     1   --> A'             
     e( 18 - 18) =     21.01118  eV     1   --> A''            
     e( 19 - 19) =     21.95450  eV     1   --> A'             
     e( 20 - 20) =     22.54564  eV     1   --> A'             
     e( 21 - 21) =     23.19157  eV     1   --> A''            
     e( 22 - 22) =     23.54873  eV     1   --> A''            
     e( 23 - 23) =     23.79429  eV     1   --> A'             
     e( 24 - 24) =     25.18149  eV     1   --> A'             
     e( 25 - 25) =     25.18550  eV     1   --> A'             
     e( 26 - 26) =     26.15604  eV     1   --> A''            
     e( 27 - 27) =     28.35516  eV     1   --> A'             
     e( 28 - 28) =     28.53729  eV     1   --> A''            
     e( 29 - 29) =     29.30905  eV     1   --> A'             
     e( 30 - 30) =     29.60666  eV     1   --> A'             

 **************************************************************************

 **************************************************************************

                    xk=(   0.36000,   0.20785,   0.58788  )

     Band symmetry, C_s (m)     point group:

     e(  1 -  1) =    -17.68199  eV     1   --> A'             
     e(  2 -  2) =    -17.67878  eV     1   --> A''            
     e(  3 -  3) =    -17.67372  eV     1   --> A'             
     e(  4 -  4) =    -17.67175  eV     1   --> A'             
     e(  5 -  5) =    -17.67119  eV     1   --> A''            
     e(  6 -  6) =     -3.66694  eV     1   --> A'             
     e(  7 -  7) =     -1.04302  eV     1   --> A'             
     e(  8 -  8) =      2.19962  eV     1   --> A'             
     e(  9 -  9) =      4.37828  eV     1   --> A''            
     e( 10 - 10) =      4.74393  eV     1   --> A'             
     e( 11 - 11) =     10.18924  eV     1   --> A''            
     e( 12 - 12) =     10.66336  eV     1   --> A'             
     e( 13 - 13) =     12.16375  eV     1   --> A'             
     e( 14 - 14) =     13.40094  eV     1   --> A'             
     e( 15 - 15) =     15.61063  eV     1   --> A'             
     e( 16 - 16) =     16.68238  eV     1   --> A''            
     e( 17 - 17) =     18.95465  eV     1   --> A'             
     e( 18 - 18) =     20.71355  eV     1   --> A''            
     e( 19 - 19) =     21.84170  eV     1   --> A'             
     e( 20 - 20) =     22.50569  eV     1   --> A'             
     e( 21 - 21) =     23.12202  eV     1   --> A''            
     e( 22 - 22) =     23.48178  eV     1   --> A''            
     e( 23 - 23) =     23.76624  eV     1   --> A'             
     e( 24 - 24) =     24.87362  eV     1   --> A'             
     e( 25 - 25) =     25.40866  eV     1   --> A'             
     e( 26 - 26) =     25.85015  eV     1   --> A''            
     e( 27 - 27) =     28.76629  eV     1   --> A'             
     e( 28 - 28) =     28.92253  eV     1   --> A''            
     e( 29 - 29) =     29.05356  eV     1   --> A'             
     e( 30 - 30) =     29.44542  eV     1   --> A'             

 **************************************************************************

 **************************************************************************

                    xk=(   0.36750,   0.21218,   0.60012  )

     Band symmetry, C_s (m)     point group:

     e(  1 -  1) =    -17.68212  eV     1   --> A'             
     e(  2 -  2) =    -17.67868  eV     1   --> A''            
     e(  3 -  3) =    -17.67383  eV     1   --> A'             
     e(  4 -  4) =    -17.67167  eV     1   --> A'             
     e(  5 -  5) =    -17.67113  eV     1   --> A''            
     e(  6 -  6) =     -3.66385  eV     1   --> A'             
     e(  7 -  7) =     -0.98676  eV     1   --> A'             
     e(  8 -  8) =      2.14471  eV     1   --> A'             
     e(  9 -  9) =      4.31154  eV     1   --> A''            
     e( 10 - 10) =      4.65788  eV     1   --> A'             
     e( 11 - 11) =     10.35175  eV     1   --> A''            
     e( 12 - 12) =     10.79040  eV     1   --> A'             
     e( 13 - 13) =     11.95108  eV     1   --> A'             
     e( 14 - 14) =     13.48040  eV     1   --> A'             
     e( 15 - 15) =     15.78252  eV     1   --> A'             
     e( 16 - 16) =     16.85535  eV     1   --> A''            
     e( 17 - 17) =     19.10138  eV     1   --> A'             
     e( 18 - 18) =     20.42128  eV     1   --> A''            
     e( 19 - 19) =     21.69220  eV     1   --> A'             
     e( 20 - 20) =     22.46978  eV     1   --> A'             
     e( 21 - 21) =     23.05570  eV     1   --> A''            
     e( 22 - 22) =     23.41773  eV     1   --> A''            
     e( 23 - 23) =     23.73223  eV     1   --> A'             
     e( 24 - 24) =     24.56651  eV     1   --> A'             
     e( 25 - 25) =     25.54832  eV     1   --> A''            
     e( 26 - 26) =     25.68501  eV     1   --> A'             
     e( 27 - 27) =     28.80223  eV     1   --> A'             
     e( 28 - 28) =     29.18519  eV     1   --> A'             
     e( 29 - 29) =     29.23824  eV     1   --> A'             
     e( 30 - 30) =     29.31012  eV     1   --> A''            

 **************************************************************************

 **************************************************************************

                    xk=(   0.37500,   0.21651,   0.61237  )

     Band symmetry, C_s (m)     point group:

     e(  1 -  1) =    -17.68224  eV     1   --> A'             
     e(  2 -  2) =    -17.67858  eV     1   --> A''            
     e(  3 -  3) =    -17.67395  eV     1   --> A'             
     e(  4 -  4) =    -17.67158  eV     1   --> A'             
     e(  5 -  5) =    -17.67108  eV     1   --> A''            
     e(  6 -  6) =     -3.66452  eV     1   --> A'             
     e(  7 -  7) =     -0.92450  eV     1   --> A'             
     e(  8 -  8) =      2.09260  eV     1   --> A'             
     e(  9 -  9) =      4.24822  eV     1   --> A''            
     e( 10 - 10) =      4.57415  eV     1   --> A'             
     e( 11 - 11) =     10.51573  eV     1   --> A''            
     e( 12 - 12) =     10.90482  eV     1   --> A'             
     e( 13 - 13) =     11.75932  eV     1   --> A'             
     e( 14 - 14) =     13.55755  eV     1   --> A'             
     e( 15 - 15) =     15.95841  eV     1   --> A'             
     e( 16 - 16) =     17.03161  eV     1   --> A''            
     e( 17 - 17) =     19.24919  eV     1   --> A'             
     e( 18 - 18) =     20.13476  eV     1   --> A''            
     e( 19 - 19) =     21.51965  eV     1   --> A'             
     e( 20 - 20) =     22.43727  eV     1   --> A'             
     e( 21 - 21) =     22.99254  eV     1   --> A''            
     e( 22 - 22) =     23.35676  eV     1   --> A''            
     e( 23 - 23) =     23.69313  eV     1   --> A'             
     e( 24 - 24) =     24.26489  eV     1   --> A'             
     e( 25 - 25) =     25.25074  eV     1   --> A''            
     e( 26 - 26) =     25.99697  eV     1   --> A'             
     e( 27 - 27) =     28.56228  eV     1   --> A'             
     e( 28 - 28) =     29.01544  eV     1   --> A'             
     e( 29 - 29) =     29.60496  eV     1   --> A'             
     e( 30 - 30) =     29.69963  eV     1   --> A''            

 **************************************************************************
 
     BANDS        :   1m12.68s CPU   1m50.13s WALL

 
   This run was terminated on:  12:26:54  13Aug2021            

=------------------------------------------------------------------------------=
   JOB DONE.
=------------------------------------------------------------------------------=
