
     Program PWSCF v.6.7MaX starts on 13Aug2021 at  6:53:15 

     This program is part of the open-source Quantum ESPRESSO suite
     for quantum simulation of materials; please cite
         "P. Giannozzi et al., J. Phys.:Condens. Matter 21 395502 (2009);
         "P. Giannozzi et al., J. Phys.:Condens. Matter 29 465901 (2017);
          URL http://www.quantum-espresso.org", 
     in publications or presentations arising from this work. More details at
     http://www.quantum-espresso.org/quote

     Parallel version (MPI), running on     8 processors

     MPI processes distributed on     1 nodes
     R & G space division:  proc/nbgrp/npool/nimage =       8
     Waiting for input...
     Reading input from standard input

     Current dimensions of program PWSCF are:
     Max number of different atomic species (ntypx) = 10
     Max number of k-points (npk) =  40000
     Max angular momentum in pseudopotentials (lmaxx) =  3

     Subspace diagonalization in iterative solution of the eigenvalue problem:
     a serial algorithm will be used

     Message from routine setup:
     using ibrav=0 with symmetry is DISCOURAGED, use correct ibrav instead
 
     Parallelization info
     --------------------
     sticks:   dense  smooth     PW     G-vecs:    dense   smooth      PW
     Min         177      90     29                 4453     1578     284
     Max         178      91     30                 4457     1579     285
     Sum        1417     721    235                35629    12627    2277
 


     bravais-lattice index     =            0
     lattice parameter (alat)  =       8.0509  a.u.
     unit-cell volume          =     368.9970 (a.u.)^3
     number of atoms/cell      =            2
     number of atomic types    =            2
     number of electrons       =        20.00
     number of Kohn-Sham states=           10
     kinetic-energy cutoff     =      40.0000  Ry
     charge density cutoff     =     320.0000  Ry
     scf convergence threshold =      4.0E-10
     mixing beta               =       0.4000
     number of iterations used =            8  plain     mixing
     Exchange-correlation= SLA  PW   PSX  PSC
                           (   1   4  10   8   0   0   0)

     celldm(1)=   8.050928  celldm(2)=   0.000000  celldm(3)=   0.000000
     celldm(4)=   0.000000  celldm(5)=   0.000000  celldm(6)=   0.000000

     crystal axes: (cart. coord. in units of alat)
               a(1) = (   1.000000   0.000000   0.000000 )  
               a(2) = (   0.500000   0.866025   0.000000 )  
               a(3) = (   0.500000   0.288675   0.816497 )  

     reciprocal axes: (cart. coord. in units 2 pi/alat)
               b(1) = (  1.000000 -0.577350 -0.408248 )  
               b(2) = (  0.000000  1.154701 -0.408248 )  
               b(3) = (  0.000000  0.000000  1.224745 )  


     PseudoPot. # 1 for Ge read from file:
     ./pseudo/ge_pbesol_v1.4.uspp.F.UPF
     MD5 check sum: 7bed0412183f5e553a4d27ec7023354d
     Pseudo is Ultrasoft + core correction, Zval = 14.0
     Generated by new atomic code, or converted to UPF format
     Using radial grid of  873 points,  6 beta functions with: 
                l(1) =   0
                l(2) =   0
                l(3) =   1
                l(4) =   1
                l(5) =   2
                l(6) =   2
     Q(r) pseudized with  8 coefficients,  rinner =    1.400   1.400   1.400
                                                       1.400   1.400

     PseudoPot. # 2 for Te read from file:
     ./pseudo/te_pbesol_v1.uspp.F.UPF
     MD5 check sum: 44ee7635674656c288d8e9a9a9ffd7e3
     Pseudo is Ultrasoft + core correction, Zval =  6.0
     Generated by new atomic code, or converted to UPF format
     Using radial grid of  891 points,  5 beta functions with: 
                l(1) =   0
                l(2) =   0
                l(3) =   1
                l(4) =   1
                l(5) =   2
     Q(r) pseudized with  6 coefficients,  rinner =    1.800   1.800   1.800
                                                       1.800   1.800

     atomic species   valence    mass     pseudopotential
        Ge            14.00    72.64000     Ge( 1.00)
        Te             6.00   127.60000     Te( 1.00)

     12 Sym. Ops., with inversion, found


                                    s                        frac. trans.

      isym =  1     identity                                     

 cryst.   s( 1) = (     1          0          0      )
                  (     0          1          0      )
                  (     0          0          1      )

 cart.    s( 1) = (  1.0000000  0.0000000  0.0000000 )
                  (  0.0000000  1.0000000  0.0000000 )
                  (  0.0000000  0.0000000  1.0000000 )


      isym =  2     180 deg rotation - cart. axis [1,0,0]        

 cryst.   s( 2) = (     1          0          0      )
                  (     1         -1          0      )
                  (     1          0         -1      )

 cart.    s( 2) = (  1.0000000 -0.0000000 -0.0000000 )
                  (  0.0000000 -1.0000000 -0.0000000 )
                  (  0.0000000  0.0000000 -1.0000000 )


      isym =  3     120 deg rotation - cryst. axis [0,0,1]       

 cryst.   s( 3) = (    -1          1          0      )
                  (    -1          0          0      )
                  (    -1          0          1      )

 cart.    s( 3) = ( -0.5000000 -0.8660254  0.0000000 )
                  (  0.8660254 -0.5000000 -0.0000000 )
                  (  0.0000000  0.0000000  1.0000000 )


      isym =  4     120 deg rotation - cryst. axis [0,0,-1]      

 cryst.   s( 4) = (     0         -1          0      )
                  (     1         -1          0      )
                  (     0         -1          1      )

 cart.    s( 4) = ( -0.5000000  0.8660254  0.0000000 )
                  ( -0.8660254 -0.5000000  0.0000000 )
                  (  0.0000000  0.0000000  1.0000000 )


      isym =  5     180 deg rotation - cryst. axis [0,1,0]       

 cryst.   s( 5) = (     0         -1          0      )
                  (    -1          0          0      )
                  (     0          0         -1      )

 cart.    s( 5) = ( -0.5000000 -0.8660254 -0.0000000 )
                  ( -0.8660254  0.5000000  0.0000000 )
                  (  0.0000000  0.0000000 -1.0000000 )


      isym =  6     180 deg rotation - cryst. axis [1,1,0]       

 cryst.   s( 6) = (    -1          1          0      )
                  (     0          1          0      )
                  (     0          1         -1      )

 cart.    s( 6) = ( -0.5000000  0.8660254 -0.0000000 )
                  (  0.8660254  0.5000000 -0.0000000 )
                  (  0.0000000  0.0000000 -1.0000000 )


      isym =  7     inversion                                    

 cryst.   s( 7) = (    -1          0          0      )
                  (     0         -1          0      )
                  (     0          0         -1      )

 cart.    s( 7) = ( -1.0000000  0.0000000 -0.0000000 )
                  (  0.0000000 -1.0000000 -0.0000000 )
                  (  0.0000000  0.0000000 -1.0000000 )


      isym =  8     inv. 180 deg rotation - cart. axis [1,0,0]   

 cryst.   s( 8) = (    -1          0          0      )
                  (    -1          1          0      )
                  (    -1          0          1      )

 cart.    s( 8) = ( -1.0000000  0.0000000  0.0000000 )
                  (  0.0000000  1.0000000  0.0000000 )
                  (  0.0000000  0.0000000  1.0000000 )


      isym =  9     inv. 120 deg rotation - cryst. axis [0,0,1]  

 cryst.   s( 9) = (     1         -1          0      )
                  (     1          0          0      )
                  (     1          0         -1      )

 cart.    s( 9) = (  0.5000000  0.8660254 -0.0000000 )
                  ( -0.8660254  0.5000000  0.0000000 )
                  (  0.0000000  0.0000000 -1.0000000 )


      isym = 10     inv. 120 deg rotation - cryst. axis [0,0,-1] 

 cryst.   s(10) = (     0          1          0      )
                  (    -1          1          0      )
                  (     0          1         -1      )

 cart.    s(10) = (  0.5000000 -0.8660254 -0.0000000 )
                  (  0.8660254  0.5000000 -0.0000000 )
                  (  0.0000000  0.0000000 -1.0000000 )


      isym = 11     inv. 180 deg rotation - cryst. axis [0,1,0]  

 cryst.   s(11) = (     0          1          0      )
                  (     1          0          0      )
                  (     0          0          1      )

 cart.    s(11) = (  0.5000000  0.8660254  0.0000000 )
                  (  0.8660254 -0.5000000 -0.0000000 )
                  (  0.0000000  0.0000000  1.0000000 )


      isym = 12     inv. 180 deg rotation - cryst. axis [1,1,0]  

 cryst.   s(12) = (     1         -1          0      )
                  (     0         -1          0      )
                  (     0         -1          1      )

 cart.    s(12) = (  0.5000000 -0.8660254  0.0000000 )
                  ( -0.8660254 -0.5000000  0.0000000 )
                  (  0.0000000  0.0000000  1.0000000 )


   Cartesian axes

     site n.     atom                  positions (alat units)
         1           Ge  tau(   1) = (   0.0000000   0.0000000   0.0000000  )
         2           Te  tau(   2) = (   1.0000000   0.5773503   0.4082483  )

   Crystallographic axes

     site n.     atom                  positions (cryst. coord.)
         1           Ge  tau(   1) = (  0.0000000  0.0000000  0.0000000  )
         2           Te  tau(   2) = (  0.5000000  0.5000000  0.5000000  )

     number of k points=   595
                       cart. coord. in units 2pi/alat
        k(    1) = (   0.0384615   0.0222058   0.0157019), wk =   0.0018207
        k(    2) = (   0.0384615   0.0222058   0.1099130), wk =   0.0018207
        k(    3) = (   0.0384615   0.0222058   0.2041241), wk =   0.0018207
        k(    4) = (   0.0384615   0.0222058   0.2983353), wk =   0.0018207
        k(    5) = (   0.0384615   0.0222058   0.3925464), wk =   0.0018207
        k(    6) = (   0.0384615   0.0222058   0.4867576), wk =   0.0018207
        k(    7) = (   0.0384615   0.0222058  -0.6437762), wk =   0.0018207
        k(    8) = (   0.0384615   0.0222058  -0.5495650), wk =   0.0018207
        k(    9) = (   0.0384615   0.0222058  -0.4553539), wk =   0.0018207
        k(   10) = (   0.0384615   0.0222058  -0.3611427), wk =   0.0018207
        k(   11) = (   0.0384615   0.0222058  -0.2669316), wk =   0.0018207
        k(   12) = (   0.0384615   0.0222058  -0.1727204), wk =   0.0018207
        k(   13) = (   0.0384615   0.0222058  -0.0785093), wk =   0.0018207
        k(   14) = (   0.0384615   0.1110289  -0.0157019), wk =   0.0036413
        k(   15) = (   0.0384615   0.1110289   0.0785093), wk =   0.0036413
        k(   16) = (   0.0384615   0.1110289   0.1727204), wk =   0.0036413
        k(   17) = (   0.0384615   0.1110289   0.2669316), wk =   0.0036413
        k(   18) = (   0.0384615   0.1110289   0.3611427), wk =   0.0036413
        k(   19) = (   0.0384615   0.1110289   0.4553539), wk =   0.0036413
        k(   20) = (   0.0384615   0.1110289  -0.6751799), wk =   0.0036413
        k(   21) = (   0.0384615   0.1110289  -0.5809687), wk =   0.0036413
        k(   22) = (   0.0384615   0.1110289  -0.4867576), wk =   0.0036413
        k(   23) = (   0.0384615   0.1110289  -0.3925464), wk =   0.0036413
        k(   24) = (   0.0384615   0.1110289  -0.2983353), wk =   0.0036413
        k(   25) = (   0.0384615   0.1110289  -0.2041241), wk =   0.0036413
        k(   26) = (   0.0384615   0.1110289  -0.1099130), wk =   0.0036413
        k(   27) = (   0.0384615   0.1998520  -0.0471056), wk =   0.0036413
        k(   28) = (   0.0384615   0.1998520   0.0471056), wk =   0.0036413
        k(   29) = (   0.0384615   0.1998520   0.1413167), wk =   0.0036413
        k(   30) = (   0.0384615   0.1998520   0.2355279), wk =   0.0036413
        k(   31) = (   0.0384615   0.1998520   0.3297390), wk =   0.0036413
        k(   32) = (   0.0384615   0.1998520   0.4239501), wk =   0.0036413
        k(   33) = (   0.0384615   0.1998520  -0.7065836), wk =   0.0036413
        k(   34) = (   0.0384615   0.1998520  -0.6123724), wk =   0.0036413
        k(   35) = (   0.0384615   0.1998520  -0.5181613), wk =   0.0036413
        k(   36) = (   0.0384615   0.1998520  -0.4239501), wk =   0.0036413
        k(   37) = (   0.0384615   0.1998520  -0.3297390), wk =   0.0036413
        k(   38) = (   0.0384615   0.1998520  -0.2355279), wk =   0.0036413
        k(   39) = (   0.0384615   0.1998520  -0.1413167), wk =   0.0036413
        k(   40) = (   0.0384615   0.2886751  -0.0785093), wk =   0.0036413
        k(   41) = (   0.0384615   0.2886751   0.0157019), wk =   0.0036413
        k(   42) = (   0.0384615   0.2886751   0.1099130), wk =   0.0036413
        k(   43) = (   0.0384615   0.2886751   0.2041241), wk =   0.0036413
        k(   44) = (   0.0384615   0.2886751   0.2983353), wk =   0.0036413
        k(   45) = (   0.0384615   0.2886751   0.3925464), wk =   0.0036413
        k(   46) = (   0.0384615   0.2886751  -0.7379873), wk =   0.0036413
        k(   47) = (   0.0384615   0.2886751  -0.6437762), wk =   0.0036413
        k(   48) = (   0.0384615   0.2886751  -0.5495650), wk =   0.0036413
        k(   49) = (   0.0384615   0.2886751  -0.4553539), wk =   0.0036413
        k(   50) = (   0.0384615   0.2886751  -0.3611427), wk =   0.0036413
        k(   51) = (   0.0384615   0.2886751  -0.2669316), wk =   0.0036413
        k(   52) = (   0.0384615   0.2886751  -0.1727204), wk =   0.0036413
        k(   53) = (   0.0384615   0.3774983  -0.1099130), wk =   0.0036413
        k(   54) = (   0.0384615   0.3774983  -0.0157019), wk =   0.0036413
        k(   55) = (   0.0384615   0.3774983   0.0785093), wk =   0.0036413
        k(   56) = (   0.0384615   0.3774983   0.1727204), wk =   0.0036413
        k(   57) = (   0.0384615   0.3774983   0.2669316), wk =   0.0036413
        k(   58) = (   0.0384615   0.3774983   0.3611427), wk =   0.0036413
        k(   59) = (   0.0384615   0.3774983  -0.7693910), wk =   0.0036413
        k(   60) = (   0.0384615   0.3774983  -0.6751799), wk =   0.0036413
        k(   61) = (   0.0384615   0.3774983  -0.5809687), wk =   0.0036413
        k(   62) = (   0.0384615   0.3774983  -0.4867576), wk =   0.0036413
        k(   63) = (   0.0384615   0.3774983  -0.3925464), wk =   0.0036413
        k(   64) = (   0.0384615   0.3774983  -0.2983353), wk =   0.0036413
        k(   65) = (   0.0384615   0.3774983  -0.2041241), wk =   0.0036413
        k(   66) = (   0.0384615   0.4663214  -0.1413167), wk =   0.0036413
        k(   67) = (   0.0384615   0.4663214  -0.0471056), wk =   0.0036413
        k(   68) = (   0.0384615   0.4663214   0.0471056), wk =   0.0036413
        k(   69) = (   0.0384615   0.4663214   0.1413167), wk =   0.0036413
        k(   70) = (   0.0384615   0.4663214   0.2355279), wk =   0.0036413
        k(   71) = (   0.0384615   0.4663214   0.3297390), wk =   0.0036413
        k(   72) = (   0.0384615   0.4663214  -0.8007947), wk =   0.0036413
        k(   73) = (   0.0384615   0.4663214  -0.7065836), wk =   0.0036413
        k(   74) = (   0.0384615   0.4663214  -0.6123724), wk =   0.0036413
        k(   75) = (   0.0384615   0.4663214  -0.5181613), wk =   0.0036413
        k(   76) = (   0.0384615   0.4663214  -0.4239501), wk =   0.0036413
        k(   77) = (   0.0384615   0.4663214  -0.3297390), wk =   0.0036413
        k(   78) = (   0.0384615   0.4663214  -0.2355279), wk =   0.0036413
        k(   79) = (   0.0384615  -0.5995560   0.2355279), wk =   0.0036413
        k(   80) = (   0.0384615  -0.5995560   0.3297390), wk =   0.0036413
        k(   81) = (   0.0384615  -0.5995560   0.4239501), wk =   0.0036413
        k(   82) = (   0.0384615  -0.5995560   0.5181613), wk =   0.0036413
        k(   83) = (   0.0384615  -0.5995560   0.6123724), wk =   0.0036413
        k(   84) = (   0.0384615  -0.5995560   0.7065836), wk =   0.0036413
        k(   85) = (   0.0384615  -0.5995560  -0.4239501), wk =   0.0036413
        k(   86) = (   0.0384615  -0.5995560  -0.3297390), wk =   0.0036413
        k(   87) = (   0.0384615  -0.5995560  -0.2355279), wk =   0.0036413
        k(   88) = (   0.0384615  -0.5995560  -0.1413167), wk =   0.0036413
        k(   89) = (   0.0384615  -0.5995560  -0.0471056), wk =   0.0036413
        k(   90) = (   0.0384615  -0.5995560   0.0471056), wk =   0.0036413
        k(   91) = (   0.0384615  -0.5995560   0.1413167), wk =   0.0036413
        k(   92) = (   0.0384615  -0.5107329   0.2041241), wk =   0.0036413
        k(   93) = (   0.0384615  -0.5107329   0.2983353), wk =   0.0036413
        k(   94) = (   0.0384615  -0.5107329   0.3925464), wk =   0.0036413
        k(   95) = (   0.0384615  -0.5107329   0.4867576), wk =   0.0036413
        k(   96) = (   0.0384615  -0.5107329   0.5809687), wk =   0.0036413
        k(   97) = (   0.0384615  -0.5107329   0.6751799), wk =   0.0036413
        k(   98) = (   0.0384615  -0.5107329  -0.4553539), wk =   0.0036413
        k(   99) = (   0.0384615  -0.5107329  -0.3611427), wk =   0.0036413
        k(  100) = (   0.0384615  -0.5107329  -0.2669316), wk =   0.0036413
        k(  101) = (   0.0384615  -0.5107329  -0.1727204), wk =   0.0036413
        k(  102) = (   0.0384615  -0.5107329  -0.0785093), wk =   0.0036413
        k(  103) = (   0.0384615  -0.5107329   0.0157019), wk =   0.0036413
        k(  104) = (   0.0384615  -0.5107329   0.1099130), wk =   0.0036413
        k(  105) = (   0.0384615  -0.4219098   0.1727204), wk =   0.0036413
        k(  106) = (   0.0384615  -0.4219098   0.2669316), wk =   0.0036413
        k(  107) = (   0.0384615  -0.4219098   0.3611427), wk =   0.0036413
        k(  108) = (   0.0384615  -0.4219098   0.4553539), wk =   0.0036413
        k(  109) = (   0.0384615  -0.4219098   0.5495650), wk =   0.0036413
        k(  110) = (   0.0384615  -0.4219098   0.6437762), wk =   0.0036413
        k(  111) = (   0.0384615  -0.4219098  -0.4867576), wk =   0.0036413
        k(  112) = (   0.0384615  -0.4219098  -0.3925464), wk =   0.0036413
        k(  113) = (   0.0384615  -0.4219098  -0.2983353), wk =   0.0036413
        k(  114) = (   0.0384615  -0.4219098  -0.2041241), wk =   0.0036413
        k(  115) = (   0.0384615  -0.4219098  -0.1099130), wk =   0.0036413
        k(  116) = (   0.0384615  -0.4219098  -0.0157019), wk =   0.0036413
        k(  117) = (   0.0384615  -0.4219098   0.0785093), wk =   0.0036413
        k(  118) = (   0.0384615  -0.3330867   0.1413167), wk =   0.0036413
        k(  119) = (   0.0384615  -0.3330867   0.2355279), wk =   0.0036413
        k(  120) = (   0.0384615  -0.3330867   0.3297390), wk =   0.0036413
        k(  121) = (   0.0384615  -0.3330867   0.4239501), wk =   0.0036413
        k(  122) = (   0.0384615  -0.3330867   0.5181613), wk =   0.0036413
        k(  123) = (   0.0384615  -0.3330867   0.6123724), wk =   0.0036413
        k(  124) = (   0.0384615  -0.3330867  -0.5181613), wk =   0.0036413
        k(  125) = (   0.0384615  -0.3330867  -0.4239501), wk =   0.0036413
        k(  126) = (   0.0384615  -0.3330867  -0.3297390), wk =   0.0036413
        k(  127) = (   0.0384615  -0.3330867  -0.2355279), wk =   0.0036413
        k(  128) = (   0.0384615  -0.3330867  -0.1413167), wk =   0.0036413
        k(  129) = (   0.0384615  -0.3330867  -0.0471056), wk =   0.0036413
        k(  130) = (   0.0384615  -0.3330867   0.0471056), wk =   0.0036413
        k(  131) = (   0.0384615  -0.2442636   0.1099130), wk =   0.0036413
        k(  132) = (   0.0384615  -0.2442636   0.2041241), wk =   0.0036413
        k(  133) = (   0.0384615  -0.2442636   0.2983353), wk =   0.0036413
        k(  134) = (   0.0384615  -0.2442636   0.3925464), wk =   0.0036413
        k(  135) = (   0.0384615  -0.2442636   0.4867576), wk =   0.0036413
        k(  136) = (   0.0384615  -0.2442636   0.5809687), wk =   0.0036413
        k(  137) = (   0.0384615  -0.2442636  -0.5495650), wk =   0.0036413
        k(  138) = (   0.0384615  -0.2442636  -0.4553539), wk =   0.0036413
        k(  139) = (   0.0384615  -0.2442636  -0.3611427), wk =   0.0036413
        k(  140) = (   0.0384615  -0.2442636  -0.2669316), wk =   0.0036413
        k(  141) = (   0.0384615  -0.2442636  -0.1727204), wk =   0.0036413
        k(  142) = (   0.0384615  -0.2442636  -0.0785093), wk =   0.0036413
        k(  143) = (   0.0384615  -0.2442636   0.0157019), wk =   0.0036413
        k(  144) = (   0.0384615  -0.1554405   0.0785093), wk =   0.0036413
        k(  145) = (   0.0384615  -0.1554405   0.1727204), wk =   0.0036413
        k(  146) = (   0.0384615  -0.1554405   0.2669316), wk =   0.0036413
        k(  147) = (   0.0384615  -0.1554405   0.3611427), wk =   0.0036413
        k(  148) = (   0.0384615  -0.1554405   0.4553539), wk =   0.0036413
        k(  149) = (   0.0384615  -0.1554405   0.5495650), wk =   0.0036413
        k(  150) = (   0.0384615  -0.1554405  -0.5809687), wk =   0.0036413
        k(  151) = (   0.0384615  -0.1554405  -0.4867576), wk =   0.0036413
        k(  152) = (   0.0384615  -0.1554405  -0.3925464), wk =   0.0036413
        k(  153) = (   0.0384615  -0.1554405  -0.2983353), wk =   0.0036413
        k(  154) = (   0.0384615  -0.1554405  -0.2041241), wk =   0.0036413
        k(  155) = (   0.0384615  -0.1554405  -0.1099130), wk =   0.0036413
        k(  156) = (   0.0384615  -0.1554405  -0.0157019), wk =   0.0036413
        k(  157) = (   0.0384615  -0.0666173   0.0471056), wk =   0.0036413
        k(  158) = (   0.0384615  -0.0666173   0.1413167), wk =   0.0036413
        k(  159) = (   0.0384615  -0.0666173   0.2355279), wk =   0.0036413
        k(  160) = (   0.0384615  -0.0666173   0.3297390), wk =   0.0036413
        k(  161) = (   0.0384615  -0.0666173   0.4239501), wk =   0.0036413
        k(  162) = (   0.0384615  -0.0666173   0.5181613), wk =   0.0036413
        k(  163) = (   0.0384615  -0.0666173  -0.6123724), wk =   0.0018207
        k(  164) = (   0.1153846   0.0666173  -0.0471056), wk =   0.0018207
        k(  165) = (   0.1153846   0.0666173   0.0471056), wk =   0.0018207
        k(  166) = (   0.1153846   0.0666173   0.1413167), wk =   0.0018207
        k(  167) = (   0.1153846   0.0666173   0.2355279), wk =   0.0018207
        k(  168) = (   0.1153846   0.0666173   0.3297390), wk =   0.0018207
        k(  169) = (   0.1153846   0.0666173   0.4239501), wk =   0.0018207
        k(  170) = (   0.1153846   0.0666173  -0.7065836), wk =   0.0018207
        k(  171) = (   0.1153846   0.0666173  -0.6123724), wk =   0.0018207
        k(  172) = (   0.1153846   0.0666173  -0.5181613), wk =   0.0018207
        k(  173) = (   0.1153846   0.0666173  -0.4239501), wk =   0.0018207
        k(  174) = (   0.1153846   0.0666173  -0.3297390), wk =   0.0018207
        k(  175) = (   0.1153846   0.0666173  -0.2355279), wk =   0.0018207
        k(  176) = (   0.1153846   0.0666173  -0.1413167), wk =   0.0018207
        k(  177) = (   0.1153846   0.1554405  -0.0785093), wk =   0.0036413
        k(  178) = (   0.1153846   0.1554405   0.0157019), wk =   0.0036413
        k(  179) = (   0.1153846   0.1554405   0.1099130), wk =   0.0036413
        k(  180) = (   0.1153846   0.1554405   0.2041241), wk =   0.0036413
        k(  181) = (   0.1153846   0.1554405   0.2983353), wk =   0.0036413
        k(  182) = (   0.1153846   0.1554405   0.3925464), wk =   0.0036413
        k(  183) = (   0.1153846   0.1554405  -0.7379873), wk =   0.0036413
        k(  184) = (   0.1153846   0.1554405  -0.6437762), wk =   0.0036413
        k(  185) = (   0.1153846   0.1554405  -0.5495650), wk =   0.0036413
        k(  186) = (   0.1153846   0.1554405  -0.4553539), wk =   0.0036413
        k(  187) = (   0.1153846   0.1554405  -0.3611427), wk =   0.0036413
        k(  188) = (   0.1153846   0.1554405  -0.2669316), wk =   0.0036413
        k(  189) = (   0.1153846   0.1554405  -0.1727204), wk =   0.0036413
        k(  190) = (   0.1153846   0.2442636  -0.1099130), wk =   0.0036413
        k(  191) = (   0.1153846   0.2442636  -0.0157019), wk =   0.0036413
        k(  192) = (   0.1153846   0.2442636   0.0785093), wk =   0.0036413
        k(  193) = (   0.1153846   0.2442636   0.1727204), wk =   0.0036413
        k(  194) = (   0.1153846   0.2442636   0.2669316), wk =   0.0036413
        k(  195) = (   0.1153846   0.2442636   0.3611427), wk =   0.0036413
        k(  196) = (   0.1153846   0.2442636  -0.7693910), wk =   0.0036413
        k(  197) = (   0.1153846   0.2442636  -0.6751799), wk =   0.0036413
        k(  198) = (   0.1153846   0.2442636  -0.5809687), wk =   0.0036413
        k(  199) = (   0.1153846   0.2442636  -0.4867576), wk =   0.0036413
        k(  200) = (   0.1153846   0.2442636  -0.3925464), wk =   0.0036413
        k(  201) = (   0.1153846   0.2442636  -0.2983353), wk =   0.0036413
        k(  202) = (   0.1153846   0.2442636  -0.2041241), wk =   0.0036413
        k(  203) = (   0.1153846   0.3330867  -0.1413167), wk =   0.0036413
        k(  204) = (   0.1153846   0.3330867  -0.0471056), wk =   0.0036413
        k(  205) = (   0.1153846   0.3330867   0.0471056), wk =   0.0036413
        k(  206) = (   0.1153846   0.3330867   0.1413167), wk =   0.0036413
        k(  207) = (   0.1153846   0.3330867   0.2355279), wk =   0.0036413
        k(  208) = (   0.1153846   0.3330867   0.3297390), wk =   0.0036413
        k(  209) = (   0.1153846   0.3330867  -0.8007947), wk =   0.0036413
        k(  210) = (   0.1153846   0.3330867  -0.7065836), wk =   0.0036413
        k(  211) = (   0.1153846   0.3330867  -0.6123724), wk =   0.0036413
        k(  212) = (   0.1153846   0.3330867  -0.5181613), wk =   0.0036413
        k(  213) = (   0.1153846   0.3330867  -0.4239501), wk =   0.0036413
        k(  214) = (   0.1153846   0.3330867  -0.3297390), wk =   0.0036413
        k(  215) = (   0.1153846   0.3330867  -0.2355279), wk =   0.0036413
        k(  216) = (   0.1153846   0.4219098  -0.1727204), wk =   0.0036413
        k(  217) = (   0.1153846   0.4219098  -0.0785093), wk =   0.0036413
        k(  218) = (   0.1153846   0.4219098   0.0157019), wk =   0.0036413
        k(  219) = (   0.1153846   0.4219098   0.1099130), wk =   0.0036413
        k(  220) = (   0.1153846   0.4219098   0.2041241), wk =   0.0036413
        k(  221) = (   0.1153846   0.4219098   0.2983353), wk =   0.0036413
        k(  222) = (   0.1153846   0.4219098  -0.8321984), wk =   0.0036413
        k(  223) = (   0.1153846   0.4219098  -0.7379873), wk =   0.0036413
        k(  224) = (   0.1153846   0.4219098  -0.6437762), wk =   0.0036413
        k(  225) = (   0.1153846   0.4219098  -0.5495650), wk =   0.0036413
        k(  226) = (   0.1153846   0.4219098  -0.4553539), wk =   0.0036413
        k(  227) = (   0.1153846   0.4219098  -0.3611427), wk =   0.0036413
        k(  228) = (   0.1153846   0.4219098  -0.2669316), wk =   0.0036413
        k(  229) = (   0.1153846  -0.6439676   0.2041241), wk =   0.0036413
        k(  230) = (   0.1153846  -0.6439676   0.2983353), wk =   0.0036413
        k(  231) = (   0.1153846  -0.6439676   0.3925464), wk =   0.0036413
        k(  232) = (   0.1153846  -0.6439676   0.4867576), wk =   0.0036413
        k(  233) = (   0.1153846  -0.6439676   0.5809687), wk =   0.0036413
        k(  234) = (   0.1153846  -0.6439676   0.6751799), wk =   0.0036413
        k(  235) = (   0.1153846  -0.6439676  -0.4553539), wk =   0.0036413
        k(  236) = (   0.1153846  -0.6439676  -0.3611427), wk =   0.0036413
        k(  237) = (   0.1153846  -0.6439676  -0.2669316), wk =   0.0036413
        k(  238) = (   0.1153846  -0.6439676  -0.1727204), wk =   0.0036413
        k(  239) = (   0.1153846  -0.6439676  -0.0785093), wk =   0.0036413
        k(  240) = (   0.1153846  -0.6439676   0.0157019), wk =   0.0036413
        k(  241) = (   0.1153846  -0.6439676   0.1099130), wk =   0.0036413
        k(  242) = (   0.1153846  -0.5551445   0.1727204), wk =   0.0036413
        k(  243) = (   0.1153846  -0.5551445   0.2669316), wk =   0.0036413
        k(  244) = (   0.1153846  -0.5551445   0.3611427), wk =   0.0036413
        k(  245) = (   0.1153846  -0.5551445   0.4553539), wk =   0.0036413
        k(  246) = (   0.1153846  -0.5551445   0.5495650), wk =   0.0036413
        k(  247) = (   0.1153846  -0.5551445   0.6437762), wk =   0.0036413
        k(  248) = (   0.1153846  -0.5551445  -0.4867576), wk =   0.0036413
        k(  249) = (   0.1153846  -0.5551445  -0.3925464), wk =   0.0036413
        k(  250) = (   0.1153846  -0.5551445  -0.2983353), wk =   0.0036413
        k(  251) = (   0.1153846  -0.5551445  -0.2041241), wk =   0.0036413
        k(  252) = (   0.1153846  -0.5551445  -0.1099130), wk =   0.0036413
        k(  253) = (   0.1153846  -0.5551445  -0.0157019), wk =   0.0036413
        k(  254) = (   0.1153846  -0.5551445   0.0785093), wk =   0.0036413
        k(  255) = (   0.1153846  -0.4663214   0.1413167), wk =   0.0036413
        k(  256) = (   0.1153846  -0.4663214   0.2355279), wk =   0.0036413
        k(  257) = (   0.1153846  -0.4663214   0.3297390), wk =   0.0036413
        k(  258) = (   0.1153846  -0.4663214   0.4239501), wk =   0.0036413
        k(  259) = (   0.1153846  -0.4663214   0.5181613), wk =   0.0036413
        k(  260) = (   0.1153846  -0.4663214   0.6123724), wk =   0.0036413
        k(  261) = (   0.1153846  -0.4663214  -0.5181613), wk =   0.0036413
        k(  262) = (   0.1153846  -0.4663214  -0.4239501), wk =   0.0036413
        k(  263) = (   0.1153846  -0.4663214  -0.3297390), wk =   0.0036413
        k(  264) = (   0.1153846  -0.4663214  -0.2355279), wk =   0.0036413
        k(  265) = (   0.1153846  -0.4663214  -0.1413167), wk =   0.0036413
        k(  266) = (   0.1153846  -0.4663214  -0.0471056), wk =   0.0036413
        k(  267) = (   0.1153846  -0.4663214   0.0471056), wk =   0.0036413
        k(  268) = (   0.1153846  -0.3774983   0.1099130), wk =   0.0036413
        k(  269) = (   0.1153846  -0.3774983   0.2041241), wk =   0.0036413
        k(  270) = (   0.1153846  -0.3774983   0.2983353), wk =   0.0036413
        k(  271) = (   0.1153846  -0.3774983   0.3925464), wk =   0.0036413
        k(  272) = (   0.1153846  -0.3774983   0.4867576), wk =   0.0036413
        k(  273) = (   0.1153846  -0.3774983   0.5809687), wk =   0.0036413
        k(  274) = (   0.1153846  -0.3774983  -0.5495650), wk =   0.0036413
        k(  275) = (   0.1153846  -0.3774983  -0.4553539), wk =   0.0036413
        k(  276) = (   0.1153846  -0.3774983  -0.3611427), wk =   0.0036413
        k(  277) = (   0.1153846  -0.3774983  -0.2669316), wk =   0.0036413
        k(  278) = (   0.1153846  -0.3774983  -0.1727204), wk =   0.0036413
        k(  279) = (   0.1153846  -0.3774983  -0.0785093), wk =   0.0036413
        k(  280) = (   0.1153846  -0.3774983   0.0157019), wk =   0.0036413
        k(  281) = (   0.1153846  -0.2886751   0.0785093), wk =   0.0036413
        k(  282) = (   0.1153846  -0.2886751   0.1727204), wk =   0.0036413
        k(  283) = (   0.1153846  -0.2886751   0.2669316), wk =   0.0036413
        k(  284) = (   0.1153846  -0.2886751   0.3611427), wk =   0.0036413
        k(  285) = (   0.1153846  -0.2886751   0.4553539), wk =   0.0036413
        k(  286) = (   0.1153846  -0.2886751   0.5495650), wk =   0.0036413
        k(  287) = (   0.1153846  -0.2886751  -0.5809687), wk =   0.0036413
        k(  288) = (   0.1153846  -0.2886751  -0.4867576), wk =   0.0036413
        k(  289) = (   0.1153846  -0.2886751  -0.3925464), wk =   0.0036413
        k(  290) = (   0.1153846  -0.2886751  -0.2983353), wk =   0.0036413
        k(  291) = (   0.1153846  -0.2886751  -0.2041241), wk =   0.0036413
        k(  292) = (   0.1153846  -0.2886751  -0.1099130), wk =   0.0036413
        k(  293) = (   0.1153846  -0.2886751  -0.0157019), wk =   0.0036413
        k(  294) = (   0.1153846  -0.1998520   0.0471056), wk =   0.0036413
        k(  295) = (   0.1153846  -0.1998520   0.1413167), wk =   0.0036413
        k(  296) = (   0.1153846  -0.1998520   0.2355279), wk =   0.0036413
        k(  297) = (   0.1153846  -0.1998520   0.3297390), wk =   0.0036413
        k(  298) = (   0.1153846  -0.1998520   0.4239501), wk =   0.0036413
        k(  299) = (   0.1153846  -0.1998520   0.5181613), wk =   0.0036413
        k(  300) = (   0.1153846  -0.1998520  -0.6123724), wk =   0.0018207
        k(  301) = (   0.1923077   0.1110289  -0.1099130), wk =   0.0018207
        k(  302) = (   0.1923077   0.1110289  -0.0157019), wk =   0.0018207
        k(  303) = (   0.1923077   0.1110289   0.0785093), wk =   0.0018207
        k(  304) = (   0.1923077   0.1110289   0.1727204), wk =   0.0018207
        k(  305) = (   0.1923077   0.1110289   0.2669316), wk =   0.0018207
        k(  306) = (   0.1923077   0.1110289   0.3611427), wk =   0.0018207
        k(  307) = (   0.1923077   0.1110289  -0.7693910), wk =   0.0018207
        k(  308) = (   0.1923077   0.1110289  -0.6751799), wk =   0.0018207
        k(  309) = (   0.1923077   0.1110289  -0.5809687), wk =   0.0018207
        k(  310) = (   0.1923077   0.1110289  -0.4867576), wk =   0.0018207
        k(  311) = (   0.1923077   0.1110289  -0.3925464), wk =   0.0018207
        k(  312) = (   0.1923077   0.1110289  -0.2983353), wk =   0.0018207
        k(  313) = (   0.1923077   0.1110289  -0.2041241), wk =   0.0018207
        k(  314) = (   0.1923077   0.1998520  -0.1413167), wk =   0.0036413
        k(  315) = (   0.1923077   0.1998520  -0.0471056), wk =   0.0036413
        k(  316) = (   0.1923077   0.1998520   0.0471056), wk =   0.0036413
        k(  317) = (   0.1923077   0.1998520   0.1413167), wk =   0.0036413
        k(  318) = (   0.1923077   0.1998520   0.2355279), wk =   0.0036413
        k(  319) = (   0.1923077   0.1998520   0.3297390), wk =   0.0036413
        k(  320) = (   0.1923077   0.1998520  -0.8007947), wk =   0.0036413
        k(  321) = (   0.1923077   0.1998520  -0.7065836), wk =   0.0036413
        k(  322) = (   0.1923077   0.1998520  -0.6123724), wk =   0.0036413
        k(  323) = (   0.1923077   0.1998520  -0.5181613), wk =   0.0036413
        k(  324) = (   0.1923077   0.1998520  -0.4239501), wk =   0.0036413
        k(  325) = (   0.1923077   0.1998520  -0.3297390), wk =   0.0036413
        k(  326) = (   0.1923077   0.1998520  -0.2355279), wk =   0.0036413
        k(  327) = (   0.1923077   0.2886751  -0.1727204), wk =   0.0036413
        k(  328) = (   0.1923077   0.2886751  -0.0785093), wk =   0.0036413
        k(  329) = (   0.1923077   0.2886751   0.0157019), wk =   0.0036413
        k(  330) = (   0.1923077   0.2886751   0.1099130), wk =   0.0036413
        k(  331) = (   0.1923077   0.2886751   0.2041241), wk =   0.0036413
        k(  332) = (   0.1923077   0.2886751   0.2983353), wk =   0.0036413
        k(  333) = (   0.1923077   0.2886751  -0.8321984), wk =   0.0036413
        k(  334) = (   0.1923077   0.2886751  -0.7379873), wk =   0.0036413
        k(  335) = (   0.1923077   0.2886751  -0.6437762), wk =   0.0036413
        k(  336) = (   0.1923077   0.2886751  -0.5495650), wk =   0.0036413
        k(  337) = (   0.1923077   0.2886751  -0.4553539), wk =   0.0036413
        k(  338) = (   0.1923077   0.2886751  -0.3611427), wk =   0.0036413
        k(  339) = (   0.1923077   0.2886751  -0.2669316), wk =   0.0036413
        k(  340) = (   0.1923077   0.3774983  -0.2041241), wk =   0.0036413
        k(  341) = (   0.1923077   0.3774983  -0.1099130), wk =   0.0036413
        k(  342) = (   0.1923077   0.3774983  -0.0157019), wk =   0.0036413
        k(  343) = (   0.1923077   0.3774983   0.0785093), wk =   0.0036413
        k(  344) = (   0.1923077   0.3774983   0.1727204), wk =   0.0036413
        k(  345) = (   0.1923077   0.3774983   0.2669316), wk =   0.0036413
        k(  346) = (   0.1923077   0.3774983  -0.8636022), wk =   0.0036413
        k(  347) = (   0.1923077   0.3774983  -0.7693910), wk =   0.0036413
        k(  348) = (   0.1923077   0.3774983  -0.6751799), wk =   0.0036413
        k(  349) = (   0.1923077   0.3774983  -0.5809687), wk =   0.0036413
        k(  350) = (   0.1923077   0.3774983  -0.4867576), wk =   0.0036413
        k(  351) = (   0.1923077   0.3774983  -0.3925464), wk =   0.0036413
        k(  352) = (   0.1923077   0.3774983  -0.2983353), wk =   0.0036413
        k(  353) = (   0.1923077  -0.6883792   0.1727204), wk =   0.0036413
        k(  354) = (   0.1923077  -0.6883792   0.2669316), wk =   0.0036413
        k(  355) = (   0.1923077  -0.6883792   0.3611427), wk =   0.0036413
        k(  356) = (   0.1923077  -0.6883792   0.4553539), wk =   0.0036413
        k(  357) = (   0.1923077  -0.6883792   0.5495650), wk =   0.0036413
        k(  358) = (   0.1923077  -0.6883792   0.6437762), wk =   0.0036413
        k(  359) = (   0.1923077  -0.6883792  -0.4867576), wk =   0.0036413
        k(  360) = (   0.1923077  -0.6883792  -0.3925464), wk =   0.0036413
        k(  361) = (   0.1923077  -0.6883792  -0.2983353), wk =   0.0036413
        k(  362) = (   0.1923077  -0.6883792  -0.2041241), wk =   0.0036413
        k(  363) = (   0.1923077  -0.6883792  -0.1099130), wk =   0.0036413
        k(  364) = (   0.1923077  -0.6883792  -0.0157019), wk =   0.0036413
        k(  365) = (   0.1923077  -0.6883792   0.0785093), wk =   0.0036413
        k(  366) = (   0.1923077  -0.5995560   0.1413167), wk =   0.0036413
        k(  367) = (   0.1923077  -0.5995560   0.2355279), wk =   0.0036413
        k(  368) = (   0.1923077  -0.5995560   0.3297390), wk =   0.0036413
        k(  369) = (   0.1923077  -0.5995560   0.4239501), wk =   0.0036413
        k(  370) = (   0.1923077  -0.5995560   0.5181613), wk =   0.0036413
        k(  371) = (   0.1923077  -0.5995560   0.6123724), wk =   0.0036413
        k(  372) = (   0.1923077  -0.5995560  -0.5181613), wk =   0.0036413
        k(  373) = (   0.1923077  -0.5995560  -0.4239501), wk =   0.0036413
        k(  374) = (   0.1923077  -0.5995560  -0.3297390), wk =   0.0036413
        k(  375) = (   0.1923077  -0.5995560  -0.2355279), wk =   0.0036413
        k(  376) = (   0.1923077  -0.5995560  -0.1413167), wk =   0.0036413
        k(  377) = (   0.1923077  -0.5995560  -0.0471056), wk =   0.0036413
        k(  378) = (   0.1923077  -0.5995560   0.0471056), wk =   0.0036413
        k(  379) = (   0.1923077  -0.5107329   0.1099130), wk =   0.0036413
        k(  380) = (   0.1923077  -0.5107329   0.2041241), wk =   0.0036413
        k(  381) = (   0.1923077  -0.5107329   0.2983353), wk =   0.0036413
        k(  382) = (   0.1923077  -0.5107329   0.3925464), wk =   0.0036413
        k(  383) = (   0.1923077  -0.5107329   0.4867576), wk =   0.0036413
        k(  384) = (   0.1923077  -0.5107329   0.5809687), wk =   0.0036413
        k(  385) = (   0.1923077  -0.5107329  -0.5495650), wk =   0.0036413
        k(  386) = (   0.1923077  -0.5107329  -0.4553539), wk =   0.0036413
        k(  387) = (   0.1923077  -0.5107329  -0.3611427), wk =   0.0036413
        k(  388) = (   0.1923077  -0.5107329  -0.2669316), wk =   0.0036413
        k(  389) = (   0.1923077  -0.5107329  -0.1727204), wk =   0.0036413
        k(  390) = (   0.1923077  -0.5107329  -0.0785093), wk =   0.0036413
        k(  391) = (   0.1923077  -0.5107329   0.0157019), wk =   0.0036413
        k(  392) = (   0.1923077  -0.4219098   0.0785093), wk =   0.0036413
        k(  393) = (   0.1923077  -0.4219098   0.1727204), wk =   0.0036413
        k(  394) = (   0.1923077  -0.4219098   0.2669316), wk =   0.0036413
        k(  395) = (   0.1923077  -0.4219098   0.3611427), wk =   0.0036413
        k(  396) = (   0.1923077  -0.4219098   0.4553539), wk =   0.0036413
        k(  397) = (   0.1923077  -0.4219098   0.5495650), wk =   0.0036413
        k(  398) = (   0.1923077  -0.4219098  -0.5809687), wk =   0.0036413
        k(  399) = (   0.1923077  -0.4219098  -0.4867576), wk =   0.0036413
        k(  400) = (   0.1923077  -0.4219098  -0.3925464), wk =   0.0036413
        k(  401) = (   0.1923077  -0.4219098  -0.2983353), wk =   0.0036413
        k(  402) = (   0.1923077  -0.4219098  -0.2041241), wk =   0.0036413
        k(  403) = (   0.1923077  -0.4219098  -0.1099130), wk =   0.0036413
        k(  404) = (   0.1923077  -0.4219098  -0.0157019), wk =   0.0036413
        k(  405) = (   0.1923077  -0.3330867   0.0471056), wk =   0.0036413
        k(  406) = (   0.1923077  -0.3330867   0.1413167), wk =   0.0036413
        k(  407) = (   0.1923077  -0.3330867   0.2355279), wk =   0.0036413
        k(  408) = (   0.1923077  -0.3330867   0.3297390), wk =   0.0036413
        k(  409) = (   0.1923077  -0.3330867   0.4239501), wk =   0.0036413
        k(  410) = (   0.1923077  -0.3330867   0.5181613), wk =   0.0036413
        k(  411) = (   0.1923077  -0.3330867  -0.6123724), wk =   0.0018207
        k(  412) = (   0.2692308   0.1554405  -0.1727204), wk =   0.0018207
        k(  413) = (   0.2692308   0.1554405  -0.0785093), wk =   0.0018207
        k(  414) = (   0.2692308   0.1554405   0.0157019), wk =   0.0018207
        k(  415) = (   0.2692308   0.1554405   0.1099130), wk =   0.0018207
        k(  416) = (   0.2692308   0.1554405   0.2041241), wk =   0.0018207
        k(  417) = (   0.2692308   0.1554405   0.2983353), wk =   0.0018207
        k(  418) = (   0.2692308   0.1554405  -0.8321984), wk =   0.0018207
        k(  419) = (   0.2692308   0.1554405  -0.7379873), wk =   0.0018207
        k(  420) = (   0.2692308   0.1554405  -0.6437762), wk =   0.0018207
        k(  421) = (   0.2692308   0.1554405  -0.5495650), wk =   0.0018207
        k(  422) = (   0.2692308   0.1554405  -0.4553539), wk =   0.0018207
        k(  423) = (   0.2692308   0.1554405  -0.3611427), wk =   0.0018207
        k(  424) = (   0.2692308   0.1554405  -0.2669316), wk =   0.0018207
        k(  425) = (   0.2692308   0.2442636  -0.2041241), wk =   0.0036413
        k(  426) = (   0.2692308   0.2442636  -0.1099130), wk =   0.0036413
        k(  427) = (   0.2692308   0.2442636  -0.0157019), wk =   0.0036413
        k(  428) = (   0.2692308   0.2442636   0.0785093), wk =   0.0036413
        k(  429) = (   0.2692308   0.2442636   0.1727204), wk =   0.0036413
        k(  430) = (   0.2692308   0.2442636   0.2669316), wk =   0.0036413
        k(  431) = (   0.2692308   0.2442636  -0.8636022), wk =   0.0036413
        k(  432) = (   0.2692308   0.2442636  -0.7693910), wk =   0.0036413
        k(  433) = (   0.2692308   0.2442636  -0.6751799), wk =   0.0036413
        k(  434) = (   0.2692308   0.2442636  -0.5809687), wk =   0.0036413
        k(  435) = (   0.2692308   0.2442636  -0.4867576), wk =   0.0036413
        k(  436) = (   0.2692308   0.2442636  -0.3925464), wk =   0.0036413
        k(  437) = (   0.2692308   0.2442636  -0.2983353), wk =   0.0036413
        k(  438) = (   0.2692308   0.3330867  -0.2355279), wk =   0.0036413
        k(  439) = (   0.2692308   0.3330867  -0.1413167), wk =   0.0036413
        k(  440) = (   0.2692308   0.3330867  -0.0471056), wk =   0.0036413
        k(  441) = (   0.2692308   0.3330867   0.0471056), wk =   0.0036413
        k(  442) = (   0.2692308   0.3330867   0.1413167), wk =   0.0036413
        k(  443) = (   0.2692308   0.3330867   0.2355279), wk =   0.0036413
        k(  444) = (   0.2692308   0.3330867  -0.8950059), wk =   0.0036413
        k(  445) = (   0.2692308   0.3330867  -0.8007947), wk =   0.0036413
        k(  446) = (   0.2692308   0.3330867  -0.7065836), wk =   0.0036413
        k(  447) = (   0.2692308   0.3330867  -0.6123724), wk =   0.0036413
        k(  448) = (   0.2692308   0.3330867  -0.5181613), wk =   0.0036413
        k(  449) = (   0.2692308   0.3330867  -0.4239501), wk =   0.0036413
        k(  450) = (   0.2692308   0.3330867  -0.3297390), wk =   0.0036413
        k(  451) = (   0.2692308  -0.7327907   0.1413167), wk =   0.0036413
        k(  452) = (   0.2692308  -0.7327907   0.2355279), wk =   0.0036413
        k(  453) = (   0.2692308  -0.7327907   0.3297390), wk =   0.0036413
        k(  454) = (   0.2692308  -0.7327907   0.4239501), wk =   0.0036413
        k(  455) = (   0.2692308  -0.7327907   0.5181613), wk =   0.0036413
        k(  456) = (   0.2692308  -0.7327907   0.6123724), wk =   0.0036413
        k(  457) = (   0.2692308  -0.7327907  -0.5181613), wk =   0.0036413
        k(  458) = (   0.2692308  -0.7327907  -0.4239501), wk =   0.0036413
        k(  459) = (   0.2692308  -0.7327907  -0.3297390), wk =   0.0036413
        k(  460) = (   0.2692308  -0.7327907  -0.2355279), wk =   0.0036413
        k(  461) = (   0.2692308  -0.7327907  -0.1413167), wk =   0.0036413
        k(  462) = (   0.2692308  -0.7327907  -0.0471056), wk =   0.0036413
        k(  463) = (   0.2692308  -0.7327907   0.0471056), wk =   0.0036413
        k(  464) = (   0.2692308  -0.6439676   0.1099130), wk =   0.0036413
        k(  465) = (   0.2692308  -0.6439676   0.2041241), wk =   0.0036413
        k(  466) = (   0.2692308  -0.6439676   0.2983353), wk =   0.0036413
        k(  467) = (   0.2692308  -0.6439676   0.3925464), wk =   0.0036413
        k(  468) = (   0.2692308  -0.6439676   0.4867576), wk =   0.0036413
        k(  469) = (   0.2692308  -0.6439676   0.5809687), wk =   0.0036413
        k(  470) = (   0.2692308  -0.6439676  -0.5495650), wk =   0.0036413
        k(  471) = (   0.2692308  -0.6439676  -0.4553539), wk =   0.0036413
        k(  472) = (   0.2692308  -0.6439676  -0.3611427), wk =   0.0036413
        k(  473) = (   0.2692308  -0.6439676  -0.2669316), wk =   0.0036413
        k(  474) = (   0.2692308  -0.6439676  -0.1727204), wk =   0.0036413
        k(  475) = (   0.2692308  -0.6439676  -0.0785093), wk =   0.0036413
        k(  476) = (   0.2692308  -0.6439676   0.0157019), wk =   0.0036413
        k(  477) = (   0.2692308  -0.5551445   0.0785093), wk =   0.0036413
        k(  478) = (   0.2692308  -0.5551445   0.1727204), wk =   0.0036413
        k(  479) = (   0.2692308  -0.5551445   0.2669316), wk =   0.0036413
        k(  480) = (   0.2692308  -0.5551445   0.3611427), wk =   0.0036413
        k(  481) = (   0.2692308  -0.5551445   0.4553539), wk =   0.0036413
        k(  482) = (   0.2692308  -0.5551445   0.5495650), wk =   0.0036413
        k(  483) = (   0.2692308  -0.5551445  -0.5809687), wk =   0.0036413
        k(  484) = (   0.2692308  -0.5551445  -0.4867576), wk =   0.0036413
        k(  485) = (   0.2692308  -0.5551445  -0.3925464), wk =   0.0036413
        k(  486) = (   0.2692308  -0.5551445  -0.2983353), wk =   0.0036413
        k(  487) = (   0.2692308  -0.5551445  -0.2041241), wk =   0.0036413
        k(  488) = (   0.2692308  -0.5551445  -0.1099130), wk =   0.0036413
        k(  489) = (   0.2692308  -0.5551445  -0.0157019), wk =   0.0036413
        k(  490) = (   0.2692308  -0.4663214   0.0471056), wk =   0.0036413
        k(  491) = (   0.2692308  -0.4663214   0.1413167), wk =   0.0036413
        k(  492) = (   0.2692308  -0.4663214   0.2355279), wk =   0.0036413
        k(  493) = (   0.2692308  -0.4663214   0.3297390), wk =   0.0036413
        k(  494) = (   0.2692308  -0.4663214   0.4239501), wk =   0.0036413
        k(  495) = (   0.2692308  -0.4663214   0.5181613), wk =   0.0036413
        k(  496) = (   0.2692308  -0.4663214  -0.6123724), wk =   0.0018207
        k(  497) = (   0.3461538   0.1998520  -0.2355279), wk =   0.0018207
        k(  498) = (   0.3461538   0.1998520  -0.1413167), wk =   0.0018207
        k(  499) = (   0.3461538   0.1998520  -0.0471056), wk =   0.0018207
        k(  500) = (   0.3461538   0.1998520   0.0471056), wk =   0.0018207
        k(  501) = (   0.3461538   0.1998520   0.1413167), wk =   0.0018207
        k(  502) = (   0.3461538   0.1998520   0.2355279), wk =   0.0018207
        k(  503) = (   0.3461538   0.1998520  -0.8950059), wk =   0.0018207
        k(  504) = (   0.3461538   0.1998520  -0.8007947), wk =   0.0018207
        k(  505) = (   0.3461538   0.1998520  -0.7065836), wk =   0.0018207
        k(  506) = (   0.3461538   0.1998520  -0.6123724), wk =   0.0018207
        k(  507) = (   0.3461538   0.1998520  -0.5181613), wk =   0.0018207
        k(  508) = (   0.3461538   0.1998520  -0.4239501), wk =   0.0018207
        k(  509) = (   0.3461538   0.1998520  -0.3297390), wk =   0.0018207
        k(  510) = (   0.3461538   0.2886751  -0.2669316), wk =   0.0036413
        k(  511) = (   0.3461538   0.2886751  -0.1727204), wk =   0.0036413
        k(  512) = (   0.3461538   0.2886751  -0.0785093), wk =   0.0036413
        k(  513) = (   0.3461538   0.2886751   0.0157019), wk =   0.0036413
        k(  514) = (   0.3461538   0.2886751   0.1099130), wk =   0.0036413
        k(  515) = (   0.3461538   0.2886751   0.2041241), wk =   0.0036413
        k(  516) = (   0.3461538   0.2886751  -0.9264096), wk =   0.0036413
        k(  517) = (   0.3461538   0.2886751  -0.8321984), wk =   0.0036413
        k(  518) = (   0.3461538   0.2886751  -0.7379873), wk =   0.0036413
        k(  519) = (   0.3461538   0.2886751  -0.6437762), wk =   0.0036413
        k(  520) = (   0.3461538   0.2886751  -0.5495650), wk =   0.0036413
        k(  521) = (   0.3461538   0.2886751  -0.4553539), wk =   0.0036413
        k(  522) = (   0.3461538   0.2886751  -0.3611427), wk =   0.0036413
        k(  523) = (   0.3461538  -0.7772023   0.1099130), wk =   0.0036413
        k(  524) = (   0.3461538  -0.7772023   0.2041241), wk =   0.0036413
        k(  525) = (   0.3461538  -0.7772023   0.2983353), wk =   0.0036413
        k(  526) = (   0.3461538  -0.7772023   0.3925464), wk =   0.0036413
        k(  527) = (   0.3461538  -0.7772023   0.4867576), wk =   0.0036413
        k(  528) = (   0.3461538  -0.7772023   0.5809687), wk =   0.0036413
        k(  529) = (   0.3461538  -0.7772023  -0.5495650), wk =   0.0036413
        k(  530) = (   0.3461538  -0.7772023  -0.4553539), wk =   0.0036413
        k(  531) = (   0.3461538  -0.7772023  -0.3611427), wk =   0.0036413
        k(  532) = (   0.3461538  -0.7772023  -0.2669316), wk =   0.0036413
        k(  533) = (   0.3461538  -0.7772023  -0.1727204), wk =   0.0036413
        k(  534) = (   0.3461538  -0.7772023  -0.0785093), wk =   0.0036413
        k(  535) = (   0.3461538  -0.7772023   0.0157019), wk =   0.0036413
        k(  536) = (   0.3461538  -0.6883792   0.0785093), wk =   0.0036413
        k(  537) = (   0.3461538  -0.6883792   0.1727204), wk =   0.0036413
        k(  538) = (   0.3461538  -0.6883792   0.2669316), wk =   0.0036413
        k(  539) = (   0.3461538  -0.6883792   0.3611427), wk =   0.0036413
        k(  540) = (   0.3461538  -0.6883792   0.4553539), wk =   0.0036413
        k(  541) = (   0.3461538  -0.6883792   0.5495650), wk =   0.0036413
        k(  542) = (   0.3461538  -0.6883792  -0.5809687), wk =   0.0036413
        k(  543) = (   0.3461538  -0.6883792  -0.4867576), wk =   0.0036413
        k(  544) = (   0.3461538  -0.6883792  -0.3925464), wk =   0.0036413
        k(  545) = (   0.3461538  -0.6883792  -0.2983353), wk =   0.0036413
        k(  546) = (   0.3461538  -0.6883792  -0.2041241), wk =   0.0036413
        k(  547) = (   0.3461538  -0.6883792  -0.1099130), wk =   0.0036413
        k(  548) = (   0.3461538  -0.6883792  -0.0157019), wk =   0.0036413
        k(  549) = (   0.3461538  -0.5995560   0.0471056), wk =   0.0036413
        k(  550) = (   0.3461538  -0.5995560   0.1413167), wk =   0.0036413
        k(  551) = (   0.3461538  -0.5995560   0.2355279), wk =   0.0036413
        k(  552) = (   0.3461538  -0.5995560   0.3297390), wk =   0.0036413
        k(  553) = (   0.3461538  -0.5995560   0.4239501), wk =   0.0036413
        k(  554) = (   0.3461538  -0.5995560   0.5181613), wk =   0.0036413
        k(  555) = (   0.3461538  -0.5995560  -0.6123724), wk =   0.0018207
        k(  556) = (   0.4230769   0.2442636  -0.2983353), wk =   0.0018207
        k(  557) = (   0.4230769   0.2442636  -0.2041241), wk =   0.0018207
        k(  558) = (   0.4230769   0.2442636  -0.1099130), wk =   0.0018207
        k(  559) = (   0.4230769   0.2442636  -0.0157019), wk =   0.0018207
        k(  560) = (   0.4230769   0.2442636   0.0785093), wk =   0.0018207
        k(  561) = (   0.4230769   0.2442636   0.1727204), wk =   0.0018207
        k(  562) = (   0.4230769   0.2442636  -0.9578133), wk =   0.0018207
        k(  563) = (   0.4230769   0.2442636  -0.8636022), wk =   0.0018207
        k(  564) = (   0.4230769   0.2442636  -0.7693910), wk =   0.0018207
        k(  565) = (   0.4230769   0.2442636  -0.6751799), wk =   0.0018207
        k(  566) = (   0.4230769   0.2442636  -0.5809687), wk =   0.0018207
        k(  567) = (   0.4230769   0.2442636  -0.4867576), wk =   0.0018207
        k(  568) = (   0.4230769   0.2442636  -0.3925464), wk =   0.0018207
        k(  569) = (   0.4230769  -0.8216138   0.0785093), wk =   0.0036413
        k(  570) = (   0.4230769  -0.8216138   0.1727204), wk =   0.0036413
        k(  571) = (   0.4230769  -0.8216138   0.2669316), wk =   0.0036413
        k(  572) = (   0.4230769  -0.8216138   0.3611427), wk =   0.0036413
        k(  573) = (   0.4230769  -0.8216138   0.4553539), wk =   0.0036413
        k(  574) = (   0.4230769  -0.8216138   0.5495650), wk =   0.0036413
        k(  575) = (   0.4230769  -0.8216138  -0.5809687), wk =   0.0036413
        k(  576) = (   0.4230769  -0.8216138  -0.4867576), wk =   0.0036413
        k(  577) = (   0.4230769  -0.8216138  -0.3925464), wk =   0.0036413
        k(  578) = (   0.4230769  -0.8216138  -0.2983353), wk =   0.0036413
        k(  579) = (   0.4230769  -0.8216138  -0.2041241), wk =   0.0036413
        k(  580) = (   0.4230769  -0.8216138  -0.1099130), wk =   0.0036413
        k(  581) = (   0.4230769  -0.8216138  -0.0157019), wk =   0.0036413
        k(  582) = (   0.4230769  -0.7327907   0.0471056), wk =   0.0036413
        k(  583) = (   0.4230769  -0.7327907   0.1413167), wk =   0.0036413
        k(  584) = (   0.4230769  -0.7327907   0.2355279), wk =   0.0036413
        k(  585) = (   0.4230769  -0.7327907   0.3297390), wk =   0.0036413
        k(  586) = (   0.4230769  -0.7327907   0.4239501), wk =   0.0036413
        k(  587) = (   0.4230769  -0.7327907   0.5181613), wk =   0.0036413
        k(  588) = (   0.4230769  -0.7327907  -0.6123724), wk =   0.0018207
        k(  589) = (  -0.5000000  -0.2886751   0.4553539), wk =   0.0018207
        k(  590) = (  -0.5000000  -0.2886751   0.5495650), wk =   0.0018207
        k(  591) = (  -0.5000000  -0.2886751   0.6437762), wk =   0.0018207
        k(  592) = (  -0.5000000  -0.2886751   0.7379873), wk =   0.0018207
        k(  593) = (  -0.5000000  -0.2886751   0.8321984), wk =   0.0018207
        k(  594) = (  -0.5000000  -0.2886751   0.9264096), wk =   0.0018207
        k(  595) = (  -0.5000000  -0.2886751  -0.2041241), wk =   0.0009103

                       cryst. coord.
        k(    1) = (   0.0384615   0.0384615   0.0384615), wk =   0.0018207
        k(    2) = (   0.0384615   0.0384615   0.1153846), wk =   0.0018207
        k(    3) = (   0.0384615   0.0384615   0.1923077), wk =   0.0018207
        k(    4) = (   0.0384615   0.0384615   0.2692308), wk =   0.0018207
        k(    5) = (   0.0384615   0.0384615   0.3461538), wk =   0.0018207
        k(    6) = (   0.0384615   0.0384615   0.4230769), wk =   0.0018207
        k(    7) = (   0.0384615   0.0384615  -0.5000000), wk =   0.0018207
        k(    8) = (   0.0384615   0.0384615  -0.4230769), wk =   0.0018207
        k(    9) = (   0.0384615   0.0384615  -0.3461538), wk =   0.0018207
        k(   10) = (   0.0384615   0.0384615  -0.2692308), wk =   0.0018207
        k(   11) = (   0.0384615   0.0384615  -0.1923077), wk =   0.0018207
        k(   12) = (   0.0384615   0.0384615  -0.1153846), wk =   0.0018207
        k(   13) = (   0.0384615   0.0384615  -0.0384615), wk =   0.0018207
        k(   14) = (   0.0384615   0.1153846   0.0384615), wk =   0.0036413
        k(   15) = (   0.0384615   0.1153846   0.1153846), wk =   0.0036413
        k(   16) = (   0.0384615   0.1153846   0.1923077), wk =   0.0036413
        k(   17) = (   0.0384615   0.1153846   0.2692308), wk =   0.0036413
        k(   18) = (   0.0384615   0.1153846   0.3461538), wk =   0.0036413
        k(   19) = (   0.0384615   0.1153846   0.4230769), wk =   0.0036413
        k(   20) = (   0.0384615   0.1153846  -0.5000000), wk =   0.0036413
        k(   21) = (   0.0384615   0.1153846  -0.4230769), wk =   0.0036413
        k(   22) = (   0.0384615   0.1153846  -0.3461538), wk =   0.0036413
        k(   23) = (   0.0384615   0.1153846  -0.2692308), wk =   0.0036413
        k(   24) = (   0.0384615   0.1153846  -0.1923077), wk =   0.0036413
        k(   25) = (   0.0384615   0.1153846  -0.1153846), wk =   0.0036413
        k(   26) = (   0.0384615   0.1153846  -0.0384615), wk =   0.0036413
        k(   27) = (   0.0384615   0.1923077   0.0384615), wk =   0.0036413
        k(   28) = (   0.0384615   0.1923077   0.1153846), wk =   0.0036413
        k(   29) = (   0.0384615   0.1923077   0.1923077), wk =   0.0036413
        k(   30) = (   0.0384615   0.1923077   0.2692308), wk =   0.0036413
        k(   31) = (   0.0384615   0.1923077   0.3461538), wk =   0.0036413
        k(   32) = (   0.0384615   0.1923077   0.4230769), wk =   0.0036413
        k(   33) = (   0.0384615   0.1923077  -0.5000000), wk =   0.0036413
        k(   34) = (   0.0384615   0.1923077  -0.4230769), wk =   0.0036413
        k(   35) = (   0.0384615   0.1923077  -0.3461538), wk =   0.0036413
        k(   36) = (   0.0384615   0.1923077  -0.2692308), wk =   0.0036413
        k(   37) = (   0.0384615   0.1923077  -0.1923077), wk =   0.0036413
        k(   38) = (   0.0384615   0.1923077  -0.1153846), wk =   0.0036413
        k(   39) = (   0.0384615   0.1923077  -0.0384615), wk =   0.0036413
        k(   40) = (   0.0384615   0.2692308   0.0384615), wk =   0.0036413
        k(   41) = (   0.0384615   0.2692308   0.1153846), wk =   0.0036413
        k(   42) = (   0.0384615   0.2692308   0.1923077), wk =   0.0036413
        k(   43) = (   0.0384615   0.2692308   0.2692308), wk =   0.0036413
        k(   44) = (   0.0384615   0.2692308   0.3461538), wk =   0.0036413
        k(   45) = (   0.0384615   0.2692308   0.4230769), wk =   0.0036413
        k(   46) = (   0.0384615   0.2692308  -0.5000000), wk =   0.0036413
        k(   47) = (   0.0384615   0.2692308  -0.4230769), wk =   0.0036413
        k(   48) = (   0.0384615   0.2692308  -0.3461538), wk =   0.0036413
        k(   49) = (   0.0384615   0.2692308  -0.2692308), wk =   0.0036413
        k(   50) = (   0.0384615   0.2692308  -0.1923077), wk =   0.0036413
        k(   51) = (   0.0384615   0.2692308  -0.1153846), wk =   0.0036413
        k(   52) = (   0.0384615   0.2692308  -0.0384615), wk =   0.0036413
        k(   53) = (   0.0384615   0.3461538   0.0384615), wk =   0.0036413
        k(   54) = (   0.0384615   0.3461538   0.1153846), wk =   0.0036413
        k(   55) = (   0.0384615   0.3461538   0.1923077), wk =   0.0036413
        k(   56) = (   0.0384615   0.3461538   0.2692308), wk =   0.0036413
        k(   57) = (   0.0384615   0.3461538   0.3461538), wk =   0.0036413
        k(   58) = (   0.0384615   0.3461538   0.4230769), wk =   0.0036413
        k(   59) = (   0.0384615   0.3461538  -0.5000000), wk =   0.0036413
        k(   60) = (   0.0384615   0.3461538  -0.4230769), wk =   0.0036413
        k(   61) = (   0.0384615   0.3461538  -0.3461538), wk =   0.0036413
        k(   62) = (   0.0384615   0.3461538  -0.2692308), wk =   0.0036413
        k(   63) = (   0.0384615   0.3461538  -0.1923077), wk =   0.0036413
        k(   64) = (   0.0384615   0.3461538  -0.1153846), wk =   0.0036413
        k(   65) = (   0.0384615   0.3461538  -0.0384615), wk =   0.0036413
        k(   66) = (   0.0384615   0.4230769   0.0384615), wk =   0.0036413
        k(   67) = (   0.0384615   0.4230769   0.1153846), wk =   0.0036413
        k(   68) = (   0.0384615   0.4230769   0.1923077), wk =   0.0036413
        k(   69) = (   0.0384615   0.4230769   0.2692308), wk =   0.0036413
        k(   70) = (   0.0384615   0.4230769   0.3461538), wk =   0.0036413
        k(   71) = (   0.0384615   0.4230769   0.4230769), wk =   0.0036413
        k(   72) = (   0.0384615   0.4230769  -0.5000000), wk =   0.0036413
        k(   73) = (   0.0384615   0.4230769  -0.4230769), wk =   0.0036413
        k(   74) = (   0.0384615   0.4230769  -0.3461538), wk =   0.0036413
        k(   75) = (   0.0384615   0.4230769  -0.2692308), wk =   0.0036413
        k(   76) = (   0.0384615   0.4230769  -0.1923077), wk =   0.0036413
        k(   77) = (   0.0384615   0.4230769  -0.1153846), wk =   0.0036413
        k(   78) = (   0.0384615   0.4230769  -0.0384615), wk =   0.0036413
        k(   79) = (   0.0384615  -0.5000000   0.0384615), wk =   0.0036413
        k(   80) = (   0.0384615  -0.5000000   0.1153846), wk =   0.0036413
        k(   81) = (   0.0384615  -0.5000000   0.1923077), wk =   0.0036413
        k(   82) = (   0.0384615  -0.5000000   0.2692308), wk =   0.0036413
        k(   83) = (   0.0384615  -0.5000000   0.3461538), wk =   0.0036413
        k(   84) = (   0.0384615  -0.5000000   0.4230769), wk =   0.0036413
        k(   85) = (   0.0384615  -0.5000000  -0.5000000), wk =   0.0036413
        k(   86) = (   0.0384615  -0.5000000  -0.4230769), wk =   0.0036413
        k(   87) = (   0.0384615  -0.5000000  -0.3461538), wk =   0.0036413
        k(   88) = (   0.0384615  -0.5000000  -0.2692308), wk =   0.0036413
        k(   89) = (   0.0384615  -0.5000000  -0.1923077), wk =   0.0036413
        k(   90) = (   0.0384615  -0.5000000  -0.1153846), wk =   0.0036413
        k(   91) = (   0.0384615  -0.5000000  -0.0384615), wk =   0.0036413
        k(   92) = (   0.0384615  -0.4230769   0.0384615), wk =   0.0036413
        k(   93) = (   0.0384615  -0.4230769   0.1153846), wk =   0.0036413
        k(   94) = (   0.0384615  -0.4230769   0.1923077), wk =   0.0036413
        k(   95) = (   0.0384615  -0.4230769   0.2692308), wk =   0.0036413
        k(   96) = (   0.0384615  -0.4230769   0.3461538), wk =   0.0036413
        k(   97) = (   0.0384615  -0.4230769   0.4230769), wk =   0.0036413
        k(   98) = (   0.0384615  -0.4230769  -0.5000000), wk =   0.0036413
        k(   99) = (   0.0384615  -0.4230769  -0.4230769), wk =   0.0036413
        k(  100) = (   0.0384615  -0.4230769  -0.3461538), wk =   0.0036413
        k(  101) = (   0.0384615  -0.4230769  -0.2692308), wk =   0.0036413
        k(  102) = (   0.0384615  -0.4230769  -0.1923077), wk =   0.0036413
        k(  103) = (   0.0384615  -0.4230769  -0.1153846), wk =   0.0036413
        k(  104) = (   0.0384615  -0.4230769  -0.0384615), wk =   0.0036413
        k(  105) = (   0.0384615  -0.3461538   0.0384615), wk =   0.0036413
        k(  106) = (   0.0384615  -0.3461538   0.1153846), wk =   0.0036413
        k(  107) = (   0.0384615  -0.3461538   0.1923077), wk =   0.0036413
        k(  108) = (   0.0384615  -0.3461538   0.2692308), wk =   0.0036413
        k(  109) = (   0.0384615  -0.3461538   0.3461538), wk =   0.0036413
        k(  110) = (   0.0384615  -0.3461538   0.4230769), wk =   0.0036413
        k(  111) = (   0.0384615  -0.3461538  -0.5000000), wk =   0.0036413
        k(  112) = (   0.0384615  -0.3461538  -0.4230769), wk =   0.0036413
        k(  113) = (   0.0384615  -0.3461538  -0.3461538), wk =   0.0036413
        k(  114) = (   0.0384615  -0.3461538  -0.2692308), wk =   0.0036413
        k(  115) = (   0.0384615  -0.3461538  -0.1923077), wk =   0.0036413
        k(  116) = (   0.0384615  -0.3461538  -0.1153846), wk =   0.0036413
        k(  117) = (   0.0384615  -0.3461538  -0.0384615), wk =   0.0036413
        k(  118) = (   0.0384615  -0.2692308   0.0384615), wk =   0.0036413
        k(  119) = (   0.0384615  -0.2692308   0.1153846), wk =   0.0036413
        k(  120) = (   0.0384615  -0.2692308   0.1923077), wk =   0.0036413
        k(  121) = (   0.0384615  -0.2692308   0.2692308), wk =   0.0036413
        k(  122) = (   0.0384615  -0.2692308   0.3461538), wk =   0.0036413
        k(  123) = (   0.0384615  -0.2692308   0.4230769), wk =   0.0036413
        k(  124) = (   0.0384615  -0.2692308  -0.5000000), wk =   0.0036413
        k(  125) = (   0.0384615  -0.2692308  -0.4230769), wk =   0.0036413
        k(  126) = (   0.0384615  -0.2692308  -0.3461538), wk =   0.0036413
        k(  127) = (   0.0384615  -0.2692308  -0.2692308), wk =   0.0036413
        k(  128) = (   0.0384615  -0.2692308  -0.1923077), wk =   0.0036413
        k(  129) = (   0.0384615  -0.2692308  -0.1153846), wk =   0.0036413
        k(  130) = (   0.0384615  -0.2692308  -0.0384615), wk =   0.0036413
        k(  131) = (   0.0384615  -0.1923077   0.0384615), wk =   0.0036413
        k(  132) = (   0.0384615  -0.1923077   0.1153846), wk =   0.0036413
        k(  133) = (   0.0384615  -0.1923077   0.1923077), wk =   0.0036413
        k(  134) = (   0.0384615  -0.1923077   0.2692308), wk =   0.0036413
        k(  135) = (   0.0384615  -0.1923077   0.3461538), wk =   0.0036413
        k(  136) = (   0.0384615  -0.1923077   0.4230769), wk =   0.0036413
        k(  137) = (   0.0384615  -0.1923077  -0.5000000), wk =   0.0036413
        k(  138) = (   0.0384615  -0.1923077  -0.4230769), wk =   0.0036413
        k(  139) = (   0.0384615  -0.1923077  -0.3461538), wk =   0.0036413
        k(  140) = (   0.0384615  -0.1923077  -0.2692308), wk =   0.0036413
        k(  141) = (   0.0384615  -0.1923077  -0.1923077), wk =   0.0036413
        k(  142) = (   0.0384615  -0.1923077  -0.1153846), wk =   0.0036413
        k(  143) = (   0.0384615  -0.1923077  -0.0384615), wk =   0.0036413
        k(  144) = (   0.0384615  -0.1153846   0.0384615), wk =   0.0036413
        k(  145) = (   0.0384615  -0.1153846   0.1153846), wk =   0.0036413
        k(  146) = (   0.0384615  -0.1153846   0.1923077), wk =   0.0036413
        k(  147) = (   0.0384615  -0.1153846   0.2692308), wk =   0.0036413
        k(  148) = (   0.0384615  -0.1153846   0.3461538), wk =   0.0036413
        k(  149) = (   0.0384615  -0.1153846   0.4230769), wk =   0.0036413
        k(  150) = (   0.0384615  -0.1153846  -0.5000000), wk =   0.0036413
        k(  151) = (   0.0384615  -0.1153846  -0.4230769), wk =   0.0036413
        k(  152) = (   0.0384615  -0.1153846  -0.3461538), wk =   0.0036413
        k(  153) = (   0.0384615  -0.1153846  -0.2692308), wk =   0.0036413
        k(  154) = (   0.0384615  -0.1153846  -0.1923077), wk =   0.0036413
        k(  155) = (   0.0384615  -0.1153846  -0.1153846), wk =   0.0036413
        k(  156) = (   0.0384615  -0.1153846  -0.0384615), wk =   0.0036413
        k(  157) = (   0.0384615  -0.0384615   0.0384615), wk =   0.0036413
        k(  158) = (   0.0384615  -0.0384615   0.1153846), wk =   0.0036413
        k(  159) = (   0.0384615  -0.0384615   0.1923077), wk =   0.0036413
        k(  160) = (   0.0384615  -0.0384615   0.2692308), wk =   0.0036413
        k(  161) = (   0.0384615  -0.0384615   0.3461538), wk =   0.0036413
        k(  162) = (   0.0384615  -0.0384615   0.4230769), wk =   0.0036413
        k(  163) = (   0.0384615  -0.0384615  -0.5000000), wk =   0.0018207
        k(  164) = (   0.1153846   0.1153846   0.0384615), wk =   0.0018207
        k(  165) = (   0.1153846   0.1153846   0.1153846), wk =   0.0018207
        k(  166) = (   0.1153846   0.1153846   0.1923077), wk =   0.0018207
        k(  167) = (   0.1153846   0.1153846   0.2692308), wk =   0.0018207
        k(  168) = (   0.1153846   0.1153846   0.3461538), wk =   0.0018207
        k(  169) = (   0.1153846   0.1153846   0.4230769), wk =   0.0018207
        k(  170) = (   0.1153846   0.1153846  -0.5000000), wk =   0.0018207
        k(  171) = (   0.1153846   0.1153846  -0.4230769), wk =   0.0018207
        k(  172) = (   0.1153846   0.1153846  -0.3461538), wk =   0.0018207
        k(  173) = (   0.1153846   0.1153846  -0.2692308), wk =   0.0018207
        k(  174) = (   0.1153846   0.1153846  -0.1923077), wk =   0.0018207
        k(  175) = (   0.1153846   0.1153846  -0.1153846), wk =   0.0018207
        k(  176) = (   0.1153846   0.1153846  -0.0384615), wk =   0.0018207
        k(  177) = (   0.1153846   0.1923077   0.0384615), wk =   0.0036413
        k(  178) = (   0.1153846   0.1923077   0.1153846), wk =   0.0036413
        k(  179) = (   0.1153846   0.1923077   0.1923077), wk =   0.0036413
        k(  180) = (   0.1153846   0.1923077   0.2692308), wk =   0.0036413
        k(  181) = (   0.1153846   0.1923077   0.3461538), wk =   0.0036413
        k(  182) = (   0.1153846   0.1923077   0.4230769), wk =   0.0036413
        k(  183) = (   0.1153846   0.1923077  -0.5000000), wk =   0.0036413
        k(  184) = (   0.1153846   0.1923077  -0.4230769), wk =   0.0036413
        k(  185) = (   0.1153846   0.1923077  -0.3461538), wk =   0.0036413
        k(  186) = (   0.1153846   0.1923077  -0.2692308), wk =   0.0036413
        k(  187) = (   0.1153846   0.1923077  -0.1923077), wk =   0.0036413
        k(  188) = (   0.1153846   0.1923077  -0.1153846), wk =   0.0036413
        k(  189) = (   0.1153846   0.1923077  -0.0384615), wk =   0.0036413
        k(  190) = (   0.1153846   0.2692308   0.0384615), wk =   0.0036413
        k(  191) = (   0.1153846   0.2692308   0.1153846), wk =   0.0036413
        k(  192) = (   0.1153846   0.2692308   0.1923077), wk =   0.0036413
        k(  193) = (   0.1153846   0.2692308   0.2692308), wk =   0.0036413
        k(  194) = (   0.1153846   0.2692308   0.3461538), wk =   0.0036413
        k(  195) = (   0.1153846   0.2692308   0.4230769), wk =   0.0036413
        k(  196) = (   0.1153846   0.2692308  -0.5000000), wk =   0.0036413
        k(  197) = (   0.1153846   0.2692308  -0.4230769), wk =   0.0036413
        k(  198) = (   0.1153846   0.2692308  -0.3461538), wk =   0.0036413
        k(  199) = (   0.1153846   0.2692308  -0.2692308), wk =   0.0036413
        k(  200) = (   0.1153846   0.2692308  -0.1923077), wk =   0.0036413
        k(  201) = (   0.1153846   0.2692308  -0.1153846), wk =   0.0036413
        k(  202) = (   0.1153846   0.2692308  -0.0384615), wk =   0.0036413
        k(  203) = (   0.1153846   0.3461538   0.0384615), wk =   0.0036413
        k(  204) = (   0.1153846   0.3461538   0.1153846), wk =   0.0036413
        k(  205) = (   0.1153846   0.3461538   0.1923077), wk =   0.0036413
        k(  206) = (   0.1153846   0.3461538   0.2692308), wk =   0.0036413
        k(  207) = (   0.1153846   0.3461538   0.3461538), wk =   0.0036413
        k(  208) = (   0.1153846   0.3461538   0.4230769), wk =   0.0036413
        k(  209) = (   0.1153846   0.3461538  -0.5000000), wk =   0.0036413
        k(  210) = (   0.1153846   0.3461538  -0.4230769), wk =   0.0036413
        k(  211) = (   0.1153846   0.3461538  -0.3461538), wk =   0.0036413
        k(  212) = (   0.1153846   0.3461538  -0.2692308), wk =   0.0036413
        k(  213) = (   0.1153846   0.3461538  -0.1923077), wk =   0.0036413
        k(  214) = (   0.1153846   0.3461538  -0.1153846), wk =   0.0036413
        k(  215) = (   0.1153846   0.3461538  -0.0384615), wk =   0.0036413
        k(  216) = (   0.1153846   0.4230769   0.0384615), wk =   0.0036413
        k(  217) = (   0.1153846   0.4230769   0.1153846), wk =   0.0036413
        k(  218) = (   0.1153846   0.4230769   0.1923077), wk =   0.0036413
        k(  219) = (   0.1153846   0.4230769   0.2692308), wk =   0.0036413
        k(  220) = (   0.1153846   0.4230769   0.3461538), wk =   0.0036413
        k(  221) = (   0.1153846   0.4230769   0.4230769), wk =   0.0036413
        k(  222) = (   0.1153846   0.4230769  -0.5000000), wk =   0.0036413
        k(  223) = (   0.1153846   0.4230769  -0.4230769), wk =   0.0036413
        k(  224) = (   0.1153846   0.4230769  -0.3461538), wk =   0.0036413
        k(  225) = (   0.1153846   0.4230769  -0.2692308), wk =   0.0036413
        k(  226) = (   0.1153846   0.4230769  -0.1923077), wk =   0.0036413
        k(  227) = (   0.1153846   0.4230769  -0.1153846), wk =   0.0036413
        k(  228) = (   0.1153846   0.4230769  -0.0384615), wk =   0.0036413
        k(  229) = (   0.1153846  -0.5000000   0.0384615), wk =   0.0036413
        k(  230) = (   0.1153846  -0.5000000   0.1153846), wk =   0.0036413
        k(  231) = (   0.1153846  -0.5000000   0.1923077), wk =   0.0036413
        k(  232) = (   0.1153846  -0.5000000   0.2692308), wk =   0.0036413
        k(  233) = (   0.1153846  -0.5000000   0.3461538), wk =   0.0036413
        k(  234) = (   0.1153846  -0.5000000   0.4230769), wk =   0.0036413
        k(  235) = (   0.1153846  -0.5000000  -0.5000000), wk =   0.0036413
        k(  236) = (   0.1153846  -0.5000000  -0.4230769), wk =   0.0036413
        k(  237) = (   0.1153846  -0.5000000  -0.3461538), wk =   0.0036413
        k(  238) = (   0.1153846  -0.5000000  -0.2692308), wk =   0.0036413
        k(  239) = (   0.1153846  -0.5000000  -0.1923077), wk =   0.0036413
        k(  240) = (   0.1153846  -0.5000000  -0.1153846), wk =   0.0036413
        k(  241) = (   0.1153846  -0.5000000  -0.0384615), wk =   0.0036413
        k(  242) = (   0.1153846  -0.4230769   0.0384615), wk =   0.0036413
        k(  243) = (   0.1153846  -0.4230769   0.1153846), wk =   0.0036413
        k(  244) = (   0.1153846  -0.4230769   0.1923077), wk =   0.0036413
        k(  245) = (   0.1153846  -0.4230769   0.2692308), wk =   0.0036413
        k(  246) = (   0.1153846  -0.4230769   0.3461538), wk =   0.0036413
        k(  247) = (   0.1153846  -0.4230769   0.4230769), wk =   0.0036413
        k(  248) = (   0.1153846  -0.4230769  -0.5000000), wk =   0.0036413
        k(  249) = (   0.1153846  -0.4230769  -0.4230769), wk =   0.0036413
        k(  250) = (   0.1153846  -0.4230769  -0.3461538), wk =   0.0036413
        k(  251) = (   0.1153846  -0.4230769  -0.2692308), wk =   0.0036413
        k(  252) = (   0.1153846  -0.4230769  -0.1923077), wk =   0.0036413
        k(  253) = (   0.1153846  -0.4230769  -0.1153846), wk =   0.0036413
        k(  254) = (   0.1153846  -0.4230769  -0.0384615), wk =   0.0036413
        k(  255) = (   0.1153846  -0.3461538   0.0384615), wk =   0.0036413
        k(  256) = (   0.1153846  -0.3461538   0.1153846), wk =   0.0036413
        k(  257) = (   0.1153846  -0.3461538   0.1923077), wk =   0.0036413
        k(  258) = (   0.1153846  -0.3461538   0.2692308), wk =   0.0036413
        k(  259) = (   0.1153846  -0.3461538   0.3461538), wk =   0.0036413
        k(  260) = (   0.1153846  -0.3461538   0.4230769), wk =   0.0036413
        k(  261) = (   0.1153846  -0.3461538  -0.5000000), wk =   0.0036413
        k(  262) = (   0.1153846  -0.3461538  -0.4230769), wk =   0.0036413
        k(  263) = (   0.1153846  -0.3461538  -0.3461538), wk =   0.0036413
        k(  264) = (   0.1153846  -0.3461538  -0.2692308), wk =   0.0036413
        k(  265) = (   0.1153846  -0.3461538  -0.1923077), wk =   0.0036413
        k(  266) = (   0.1153846  -0.3461538  -0.1153846), wk =   0.0036413
        k(  267) = (   0.1153846  -0.3461538  -0.0384615), wk =   0.0036413
        k(  268) = (   0.1153846  -0.2692308   0.0384615), wk =   0.0036413
        k(  269) = (   0.1153846  -0.2692308   0.1153846), wk =   0.0036413
        k(  270) = (   0.1153846  -0.2692308   0.1923077), wk =   0.0036413
        k(  271) = (   0.1153846  -0.2692308   0.2692308), wk =   0.0036413
        k(  272) = (   0.1153846  -0.2692308   0.3461538), wk =   0.0036413
        k(  273) = (   0.1153846  -0.2692308   0.4230769), wk =   0.0036413
        k(  274) = (   0.1153846  -0.2692308  -0.5000000), wk =   0.0036413
        k(  275) = (   0.1153846  -0.2692308  -0.4230769), wk =   0.0036413
        k(  276) = (   0.1153846  -0.2692308  -0.3461538), wk =   0.0036413
        k(  277) = (   0.1153846  -0.2692308  -0.2692308), wk =   0.0036413
        k(  278) = (   0.1153846  -0.2692308  -0.1923077), wk =   0.0036413
        k(  279) = (   0.1153846  -0.2692308  -0.1153846), wk =   0.0036413
        k(  280) = (   0.1153846  -0.2692308  -0.0384615), wk =   0.0036413
        k(  281) = (   0.1153846  -0.1923077   0.0384615), wk =   0.0036413
        k(  282) = (   0.1153846  -0.1923077   0.1153846), wk =   0.0036413
        k(  283) = (   0.1153846  -0.1923077   0.1923077), wk =   0.0036413
        k(  284) = (   0.1153846  -0.1923077   0.2692308), wk =   0.0036413
        k(  285) = (   0.1153846  -0.1923077   0.3461538), wk =   0.0036413
        k(  286) = (   0.1153846  -0.1923077   0.4230769), wk =   0.0036413
        k(  287) = (   0.1153846  -0.1923077  -0.5000000), wk =   0.0036413
        k(  288) = (   0.1153846  -0.1923077  -0.4230769), wk =   0.0036413
        k(  289) = (   0.1153846  -0.1923077  -0.3461538), wk =   0.0036413
        k(  290) = (   0.1153846  -0.1923077  -0.2692308), wk =   0.0036413
        k(  291) = (   0.1153846  -0.1923077  -0.1923077), wk =   0.0036413
        k(  292) = (   0.1153846  -0.1923077  -0.1153846), wk =   0.0036413
        k(  293) = (   0.1153846  -0.1923077  -0.0384615), wk =   0.0036413
        k(  294) = (   0.1153846  -0.1153846   0.0384615), wk =   0.0036413
        k(  295) = (   0.1153846  -0.1153846   0.1153846), wk =   0.0036413
        k(  296) = (   0.1153846  -0.1153846   0.1923077), wk =   0.0036413
        k(  297) = (   0.1153846  -0.1153846   0.2692308), wk =   0.0036413
        k(  298) = (   0.1153846  -0.1153846   0.3461538), wk =   0.0036413
        k(  299) = (   0.1153846  -0.1153846   0.4230769), wk =   0.0036413
        k(  300) = (   0.1153846  -0.1153846  -0.5000000), wk =   0.0018207
        k(  301) = (   0.1923077   0.1923077   0.0384615), wk =   0.0018207
        k(  302) = (   0.1923077   0.1923077   0.1153846), wk =   0.0018207
        k(  303) = (   0.1923077   0.1923077   0.1923077), wk =   0.0018207
        k(  304) = (   0.1923077   0.1923077   0.2692308), wk =   0.0018207
        k(  305) = (   0.1923077   0.1923077   0.3461538), wk =   0.0018207
        k(  306) = (   0.1923077   0.1923077   0.4230769), wk =   0.0018207
        k(  307) = (   0.1923077   0.1923077  -0.5000000), wk =   0.0018207
        k(  308) = (   0.1923077   0.1923077  -0.4230769), wk =   0.0018207
        k(  309) = (   0.1923077   0.1923077  -0.3461538), wk =   0.0018207
        k(  310) = (   0.1923077   0.1923077  -0.2692308), wk =   0.0018207
        k(  311) = (   0.1923077   0.1923077  -0.1923077), wk =   0.0018207
        k(  312) = (   0.1923077   0.1923077  -0.1153846), wk =   0.0018207
        k(  313) = (   0.1923077   0.1923077  -0.0384615), wk =   0.0018207
        k(  314) = (   0.1923077   0.2692308   0.0384615), wk =   0.0036413
        k(  315) = (   0.1923077   0.2692308   0.1153846), wk =   0.0036413
        k(  316) = (   0.1923077   0.2692308   0.1923077), wk =   0.0036413
        k(  317) = (   0.1923077   0.2692308   0.2692308), wk =   0.0036413
        k(  318) = (   0.1923077   0.2692308   0.3461538), wk =   0.0036413
        k(  319) = (   0.1923077   0.2692308   0.4230769), wk =   0.0036413
        k(  320) = (   0.1923077   0.2692308  -0.5000000), wk =   0.0036413
        k(  321) = (   0.1923077   0.2692308  -0.4230769), wk =   0.0036413
        k(  322) = (   0.1923077   0.2692308  -0.3461538), wk =   0.0036413
        k(  323) = (   0.1923077   0.2692308  -0.2692308), wk =   0.0036413
        k(  324) = (   0.1923077   0.2692308  -0.1923077), wk =   0.0036413
        k(  325) = (   0.1923077   0.2692308  -0.1153846), wk =   0.0036413
        k(  326) = (   0.1923077   0.2692308  -0.0384615), wk =   0.0036413
        k(  327) = (   0.1923077   0.3461538   0.0384615), wk =   0.0036413
        k(  328) = (   0.1923077   0.3461538   0.1153846), wk =   0.0036413
        k(  329) = (   0.1923077   0.3461538   0.1923077), wk =   0.0036413
[...]

   -17.6810 -17.6794 -17.6728 -17.6726 -17.6716  -3.9419  -1.1200   2.9111
     4.4123   6.4052

     occupation numbers 
     1.0000   1.0000   1.0000   1.0000   1.0000   1.0000   1.0000   1.0000
     1.0000   1.0000

          k = 0.3462-0.6884 0.4554 (  1574 PWs)   bands (ev):

   -17.6808 -17.6796 -17.6728 -17.6724 -17.6719  -3.9542  -1.2542   3.1092
     5.2086   5.7251

     occupation numbers 
     1.0000   1.0000   1.0000   1.0000   1.0000   1.0000   1.0000   1.0000
     1.0000   1.0000

          k = 0.3462-0.6884 0.5496 (  1574 PWs)   bands (ev):

   -17.6809 -17.6796 -17.6730 -17.6723 -17.6717  -3.9296  -1.3673   3.5496
     4.5366   6.4629

     occupation numbers 
     1.0000   1.0000   1.0000   1.0000   1.0000   1.0000   1.0000   1.0000
     1.0000   1.0000

          k = 0.3462-0.6884-0.5810 (  1569 PWs)   bands (ev):

   -17.6811 -17.6794 -17.6732 -17.6722 -17.6716  -3.8780  -1.4138   3.7254
     4.2424   6.1383

     occupation numbers 
     1.0000   1.0000   1.0000   1.0000   1.0000   1.0000   1.0000   1.0000
     1.0000   1.0000

          k = 0.3462-0.6884-0.4868 (  1572 PWs)   bands (ev):

   -17.6812 -17.6793 -17.6732 -17.6720 -17.6716  -3.8138  -1.3697   3.1500
     4.8265   5.2854

     occupation numbers 
     1.0000   1.0000   1.0000   1.0000   1.0000   1.0000   1.0000   1.0000
     1.0000   1.0000

          k = 0.3462-0.6884-0.3925 (  1574 PWs)   bands (ev):

   -17.6814 -17.6792 -17.6731 -17.6723 -17.6713  -3.7494  -1.2448   2.7655
     4.0236   5.9689

     occupation numbers 
     1.0000   1.0000   1.0000   1.0000   1.0000   1.0000   1.0000   1.0000
     1.0000   1.0000

          k = 0.3462-0.6884-0.2983 (  1580 PWs)   bands (ev):

   -17.6816 -17.6791 -17.6729 -17.6728 -17.6710  -3.6934  -1.0827   2.6369
     3.1782   6.6818

     occupation numbers 
     1.0000   1.0000   1.0000   1.0000   1.0000   1.0000   1.0000   1.0000
     1.0000   1.0000

          k = 0.3462-0.6884-0.2041 (  1585 PWs)   bands (ev):

   -17.6819 -17.6788 -17.6734 -17.6723 -17.6708  -3.6552  -0.9407   2.5309
     2.7993   6.3983

     occupation numbers 
     1.0000   1.0000   1.0000   1.0000   1.0000   1.0000   1.0000   1.0000
     1.0000   1.0000

          k = 0.3462-0.6884-0.1099 (  1586 PWs)   bands (ev):

   -17.6822 -17.6786 -17.6738 -17.6719 -17.6708  -3.6460  -0.8588   2.1463
     3.2442   5.5916

     occupation numbers 
     1.0000   1.0000   1.0000   1.0000   1.0000   1.0000   1.0000   1.0000
     1.0000   1.0000

          k = 0.3462-0.6884-0.0157 (  1582 PWs)   bands (ev):

   -17.6824 -17.6785 -17.6740 -17.6714 -17.6710  -3.6740  -0.8441   2.0700
     3.9086   4.7646

     occupation numbers 
     1.0000   1.0000   1.0000   1.0000   1.0000   1.0000   1.0000   1.0000
     1.0000   1.0000

          k = 0.3462-0.5996 0.0471 (  1578 PWs)   bands (ev):

   -17.6818 -17.6790 -17.6734 -17.6719 -17.6713  -3.6858  -1.1299   2.3470
     4.2192   5.2257

     occupation numbers 
     1.0000   1.0000   1.0000   1.0000   1.0000   1.0000   1.0000   1.0000
     1.0000   1.0000

          k = 0.3462-0.5996 0.1413 (  1580 PWs)   bands (ev):

   -17.6817 -17.6790 -17.6732 -17.6723 -17.6711  -3.6950  -1.1426   2.6470
     3.4604   6.1653

     occupation numbers 
     1.0000   1.0000   1.0000   1.0000   1.0000   1.0000   1.0000   1.0000
     1.0000   1.0000

          k = 0.3462-0.5996 0.2355 (  1575 PWs)   bands (ev):

   -17.6815 -17.6791 -17.6730 -17.6726 -17.6711  -3.7109  -1.1570   2.8606
     3.2259   6.6742

     occupation numbers 
     1.0000   1.0000   1.0000   1.0000   1.0000   1.0000   1.0000   1.0000
     1.0000   1.0000

          k = 0.3462-0.5996 0.3297 (  1577 PWs)   bands (ev):

   -17.6815 -17.6792 -17.6731 -17.6723 -17.6713  -3.7283  -1.1749   2.5373
     3.9820   5.9334

     occupation numbers 
     1.0000   1.0000   1.0000   1.0000   1.0000   1.0000   1.0000   1.0000
     1.0000   1.0000

          k = 0.3462-0.5996 0.4240 (  1575 PWs)   bands (ev):

   -17.6814 -17.6792 -17.6732 -17.6720 -17.6716  -3.7419  -1.2068   2.5035
     4.7163   5.1559

     occupation numbers 
     1.0000   1.0000   1.0000   1.0000   1.0000   1.0000   1.0000   1.0000
     1.0000   1.0000

          k = 0.3462-0.5996 0.5182 (  1574 PWs)   bands (ev):

   -17.6814 -17.6792 -17.6731 -17.6723 -17.6714  -3.7494  -1.2448   2.7655
     4.0236   5.9689

     occupation numbers 
     1.0000   1.0000   1.0000   1.0000   1.0000   1.0000   1.0000   1.0000
     1.0000   1.0000

          k = 0.3462-0.5996-0.6124 (  1570 PWs)   bands (ev):

   -17.6814 -17.6792 -17.6730 -17.6725 -17.6713  -3.7515  -1.2623   3.2083
     3.3808   6.6461

     occupation numbers 
     1.0000   1.0000   1.0000   1.0000   1.0000   1.0000   1.0000   1.0000
     1.0000   1.0000

          k = 0.4231 0.2443-0.2983 (  1591 PWs)   bands (ev):

   -17.6829 -17.6777 -17.6749 -17.6711 -17.6709  -4.0417  -0.0502   2.3981
     3.8617   3.8765

     occupation numbers 
     1.0000   1.0000   1.0000   1.0000   1.0000   1.0000   1.0000   1.0000
     1.0000   1.0000

          k = 0.4231 0.2443-0.2041 (  1587 PWs)   bands (ev):

   -17.6823 -17.6781 -17.6746 -17.6715 -17.6712  -4.1941  -0.2513   3.0402
     4.0740   4.1969

     occupation numbers 
     1.0000   1.0000   1.0000   1.0000   1.0000   1.0000   1.0000   1.0000
     1.0000   1.0000

          k = 0.4231 0.2443-0.1099 (  1582 PWs)   bands (ev):

   -17.6816 -17.6786 -17.6741 -17.6720 -17.6715  -4.3054  -0.5719   3.8368
     4.4158   4.7116

     occupation numbers 
     1.0000   1.0000   1.0000   1.0000   1.0000   1.0000   1.0000   1.0000
     1.0000   1.0000

          k = 0.4231 0.2443-0.0157 (  1584 PWs)   bands (ev):

   -17.6808 -17.6792 -17.6736 -17.6724 -17.6718  -4.3543  -0.9229   4.7266
     4.8745   5.3983

     occupation numbers 
     1.0000   1.0000   1.0000   1.0000   1.0000   1.0000   1.0000   1.0000
     1.0000   1.0000

          k = 0.4231 0.2443 0.0785 (  1569 PWs)   bands (ev):

   -17.6803 -17.6798 -17.6733 -17.6724 -17.6719  -4.3328  -1.2371   5.4172
     5.5577   6.2971

     occupation numbers 
     1.0000   1.0000   1.0000   1.0000   1.0000   1.0000   1.0000   1.0000
     1.0000   1.0000

          k = 0.4231 0.2443 0.1727 (  1580 PWs)   bands (ev):

   -17.6801 -17.6801 -17.6734 -17.6722 -17.6720  -4.2452  -1.4681   5.9134
     5.9135   7.0110

     occupation numbers 
     1.0000   1.0000   1.0000   1.0000   1.0000   1.0000   1.0000   1.0000
     1.0000   1.0000

          k = 0.4231 0.2443-0.9578 (  1571 PWs)   bands (ev):

   -17.6802 -17.6801 -17.6733 -17.6722 -17.6719  -4.1088  -1.5819   5.1153
     5.8925   6.6549

     occupation numbers 
     1.0000   1.0000   1.0000   1.0000   1.0000   1.0000   1.0000   1.0000
     1.0000   1.0000

          k = 0.4231 0.2443-0.8636 (  1573 PWs)   bands (ev):

   -17.6806 -17.6798 -17.6731 -17.6723 -17.6718  -3.9532  -1.5528   4.0761
     5.3740   5.9392

     occupation numbers 
     1.0000   1.0000   1.0000   1.0000   1.0000   1.0000   1.0000   1.0000
     1.0000   1.0000

          k = 0.4231 0.2443-0.7694 (  1572 PWs)   bands (ev):

   -17.6812 -17.6793 -17.6732 -17.6722 -17.6715  -3.8139  -1.3697   3.1500
     4.8265   5.2853

     occupation numbers 
     1.0000   1.0000   1.0000   1.0000   1.0000   1.0000   1.0000   1.0000
     1.0000   1.0000

          k = 0.4231 0.2443-0.6752 (  1577 PWs)   bands (ev):

   -17.6820 -17.6787 -17.6738 -17.6717 -17.6712  -3.7223  -1.0504   2.4214
     4.3729   4.7301

     occupation numbers 
     1.0000   1.0000   1.0000   1.0000   1.0000   1.0000   1.0000   1.0000
     1.0000   1.0000

          k = 0.4231 0.2443-0.5810 (  1593 PWs)   bands (ev):

   -17.6826 -17.6782 -17.6743 -17.6713 -17.6709  -3.7003  -0.6524   1.9497
     4.0423   4.2805

     occupation numbers 
     1.0000   1.0000   1.0000   1.0000   1.0000   1.0000   1.0000   1.0000
     1.0000   1.0000

          k = 0.4231 0.2443-0.4868 (  1586 PWs)   bands (ev):

   -17.6831 -17.6778 -17.6748 -17.6709 -17.6707  -3.7574  -0.2771   1.7876
     3.8450   3.9543

     occupation numbers 
     1.0000   1.0000   1.0000   1.0000   1.0000   1.0000   1.0000   1.0000
     1.0000   1.0000

          k = 0.4231 0.2443-0.3925 (  1591 PWs)   bands (ev):

   -17.6832 -17.6776 -17.6750 -17.6709 -17.6707  -3.8823  -0.0515   1.9551
     3.7846   3.7988

     occupation numbers 
     1.0000   1.0000   1.0000   1.0000   1.0000   1.0000   1.0000   1.0000
     1.0000   1.0000

          k = 0.4231-0.8216 0.0785 (  1585 PWs)   bands (ev):

   -17.6831 -17.6777 -17.6749 -17.6709 -17.6708  -3.8601  -0.1752   1.9924
     3.6950   4.0372

     occupation numbers 
     1.0000   1.0000   1.0000   1.0000   1.0000   1.0000   1.0000   1.0000
     1.0000   1.0000

          k = 0.4231-0.8216 0.1727 (  1586 PWs)   bands (ev):

   -17.6826 -17.6780 -17.6746 -17.6713 -17.6710  -3.9676  -0.3810   2.5041
     3.6006   4.5563

     occupation numbers 
     1.0000   1.0000   1.0000   1.0000   1.0000   1.0000   1.0000   1.0000
     1.0000   1.0000

          k = 0.4231-0.8216 0.2669 (  1584 PWs)   bands (ev):

   -17.6819 -17.6786 -17.6741 -17.6718 -17.6713  -4.0654  -0.6983   3.2180
     3.7351   5.1591

     occupation numbers 
     1.0000   1.0000   1.0000   1.0000   1.0000   1.0000   1.0000   1.0000
     1.0000   1.0000

          k = 0.4231-0.8216 0.3611 (  1575 PWs)   bands (ev):

   -17.6811 -17.6792 -17.6735 -17.6722 -17.6716  -4.1276  -1.0475   3.9649
     4.2092   5.8046

     occupation numbers 
     1.0000   1.0000   1.0000   1.0000   1.0000   1.0000   1.0000   1.0000
     1.0000   1.0000

          k = 0.4231-0.8216 0.4554 (  1573 PWs)   bands (ev):

   -17.6805 -17.6797 -17.6732 -17.6724 -17.6718  -4.1417  -1.3596   4.5041
     5.1683   6.4136

     occupation numbers 
     1.0000   1.0000   1.0000   1.0000   1.0000   1.0000   1.0000   1.0000
     1.0000   1.0000

          k = 0.4231-0.8216 0.5496 (  1571 PWs)   bands (ev):

   -17.6802 -17.6801 -17.6733 -17.6722 -17.6719  -4.1088  -1.5819   5.1153
     5.8924   6.6549

     occupation numbers 
     1.0000   1.0000   1.0000   1.0000   1.0000   1.0000   1.0000   1.0000
     1.0000   1.0000

          k = 0.4231-0.8216-0.5810 (  1566 PWs)   bands (ev):

   -17.6803 -17.6800 -17.6733 -17.6721 -17.6719  -4.0421  -1.6761   5.3611
     5.6364   6.3681

     occupation numbers 
     1.0000   1.0000   1.0000   1.0000   1.0000   1.0000   1.0000   1.0000
     1.0000   1.0000

          k = 0.4231-0.8216-0.4868 (  1574 PWs)   bands (ev):

   -17.6805 -17.6799 -17.6731 -17.6723 -17.6718  -3.9601  -1.6197   4.6242
     4.9264   6.5120

     occupation numbers 
     1.0000   1.0000   1.0000   1.0000   1.0000   1.0000   1.0000   1.0000
     1.0000   1.0000

          k = 0.4231-0.8216-0.3925 (  1569 PWs)   bands (ev):

   -17.6810 -17.6795 -17.6731 -17.6724 -17.6715  -3.8780  -1.4138   3.7255
     4.2423   6.1383

     occupation numbers 
     1.0000   1.0000   1.0000   1.0000   1.0000   1.0000   1.0000   1.0000
     1.0000   1.0000

          k = 0.4231-0.8216-0.2983 (  1579 PWs)   bands (ev):

   -17.6817 -17.6789 -17.6736 -17.6720 -17.6712  -3.8054  -1.0894   2.8794
     3.7917   5.5416

     occupation numbers 
     1.0000   1.0000   1.0000   1.0000   1.0000   1.0000   1.0000   1.0000
     1.0000   1.0000

          k = 0.4231-0.8216-0.2041 (  1587 PWs)   bands (ev):

   -17.6824 -17.6783 -17.6742 -17.6715 -17.6709  -3.7533  -0.7066   2.2249
     3.5326   4.9635

     occupation numbers 
     1.0000   1.0000   1.0000   1.0000   1.0000   1.0000   1.0000   1.0000
     1.0000   1.0000

          k = 0.4231-0.8216-0.1099 (  1587 PWs)   bands (ev):

   -17.6830 -17.6779 -17.6747 -17.6711 -17.6707  -3.7386  -0.3572   1.8279
     3.4827   4.4377

     occupation numbers 
     1.0000   1.0000   1.0000   1.0000   1.0000   1.0000   1.0000   1.0000
     1.0000   1.0000

          k = 0.4231-0.8216-0.0157 (  1582 PWs)   bands (ev):

   -17.6832 -17.6777 -17.6749 -17.6709 -17.6707  -3.7755  -0.1566   1.7469
     3.6558   3.9977

     occupation numbers 
     1.0000   1.0000   1.0000   1.0000   1.0000   1.0000   1.0000   1.0000
     1.0000   1.0000

          k = 0.4231-0.7328 0.0471 (  1587 PWs)   bands (ev):

   -17.6829 -17.6780 -17.6745 -17.6711 -17.6708  -3.7245  -0.4709   1.8686
     3.7141   4.3489

     occupation numbers 
     1.0000   1.0000   1.0000   1.0000   1.0000   1.0000   1.0000   1.0000
     1.0000   1.0000

          k = 0.4231-0.7328 0.1413 (  1582 PWs)   bands (ev):

   -17.6826 -17.6782 -17.6743 -17.6715 -17.6708  -3.7640  -0.6001   2.1864
     3.2989   5.0559

     occupation numbers 
     1.0000   1.0000   1.0000   1.0000   1.0000   1.0000   1.0000   1.0000
     1.0000   1.0000

          k = 0.4231-0.7328 0.2355 (  1582 PWs)   bands (ev):

   -17.6820 -17.6787 -17.6738 -17.6719 -17.6710  -3.8253  -0.8284   2.7700
     3.1312   5.7943

     occupation numbers 
     1.0000   1.0000   1.0000   1.0000   1.0000   1.0000   1.0000   1.0000
     1.0000   1.0000

          k = 0.4231-0.7328 0.3297 (  1582 PWs)   bands (ev):

   -17.6814 -17.6792 -17.6733 -17.6724 -17.6713  -3.8856  -1.1056   3.2136
     3.5822   6.4469

     occupation numbers 
     1.0000   1.0000   1.0000   1.0000   1.0000   1.0000   1.0000   1.0000
     1.0000   1.0000

          k = 0.4231-0.7328 0.4240 (  1574 PWs)   bands (ev):

   -17.6808 -17.6796 -17.6730 -17.6725 -17.6717  -3.9296  -1.3673   3.5496
     4.5366   6.4629

     occupation numbers 
     1.0000   1.0000   1.0000   1.0000   1.0000   1.0000   1.0000   1.0000
     1.0000   1.0000

          k = 0.4231-0.7328 0.5182 (  1573 PWs)   bands (ev):

   -17.6806 -17.6798 -17.6731 -17.6722 -17.6719  -3.9532  -1.5528   4.0761
     5.3740   5.9392

     occupation numbers 
     1.0000   1.0000   1.0000   1.0000   1.0000   1.0000   1.0000   1.0000
     1.0000   1.0000

          k = 0.4231-0.7328-0.6124 (  1574 PWs)   bands (ev):

   -17.6806 -17.6798 -17.6732 -17.6721 -17.6719  -3.9601  -1.6197   4.6242
     4.9264   6.5120

     occupation numbers 
     1.0000   1.0000   1.0000   1.0000   1.0000   1.0000   1.0000   1.0000
     1.0000   1.0000

          k =-0.5000-0.2887 0.4554 (  1588 PWs)   bands (ev):

   -17.6834 -17.6776 -17.6750 -17.6708 -17.6706  -3.7955  -0.0323   1.7063
     3.7457   3.7597

     occupation numbers 
     1.0000   1.0000   1.0000   1.0000   1.0000   1.0000   1.0000   1.0000
     1.0000   1.0000

          k =-0.5000-0.2887 0.5496 (  1586 PWs)   bands (ev):

   -17.6830 -17.6779 -17.6747 -17.6710 -17.6708  -3.8397  -0.2958   2.0301
     3.8838   3.9948

     occupation numbers 
     1.0000   1.0000   1.0000   1.0000   1.0000   1.0000   1.0000   1.0000
     1.0000   1.0000

          k =-0.5000-0.2887 0.6438 (  1587 PWs)   bands (ev):

   -17.6823 -17.6783 -17.6743 -17.6715 -17.6711  -3.9073  -0.6902   2.6132
     4.1573   4.4064

     occupation numbers 
     1.0000   1.0000   1.0000   1.0000   1.0000   1.0000   1.0000   1.0000
     1.0000   1.0000

          k =-0.5000-0.2887 0.7380 (  1581 PWs)   bands (ev):

   -17.6815 -17.6790 -17.6737 -17.6720 -17.6714  -3.9725  -1.0989   3.4039
     4.5590   4.9462

     occupation numbers 
     1.0000   1.0000   1.0000   1.0000   1.0000   1.0000   1.0000   1.0000
     1.0000   1.0000

          k =-0.5000-0.2887 0.8322 (  1567 PWs)   bands (ev):

   -17.6808 -17.6796 -17.6733 -17.6723 -17.6716  -4.0185  -1.4451   4.3524
     5.0715   5.5979

     occupation numbers 
     1.0000   1.0000   1.0000   1.0000   1.0000   1.0000   1.0000   1.0000
     1.0000   1.0000

          k =-0.5000-0.2887 0.9264 (  1566 PWs)   bands (ev):

   -17.6803 -17.6800 -17.6733 -17.6722 -17.6718  -4.0421  -1.6761   5.3611
     5.6364   6.3680

     occupation numbers 
     1.0000   1.0000   1.0000   1.0000   1.0000   1.0000   1.0000   1.0000
     1.0000   1.0000

          k =-0.5000-0.2887-0.2041 (  1568 PWs)   bands (ev):

   -17.6802 -17.6801 -17.6733 -17.6721 -17.6719  -4.0487  -1.7574   5.9731
     5.9731   7.1721

     occupation numbers 
     1.0000   1.0000   1.0000   1.0000   1.0000   1.0000   1.0000   1.0000
     1.0000   1.0000

     highest occupied level (ev):     7.1721

!    total energy              =    -239.63636259 Ry
     estimated scf accuracy    <          3.6E-11 Ry

     The total energy is the sum of the following terms:
     one-electron contribution =    -147.05152059 Ry
     hartree contribution      =      88.78504266 Ry
     xc contribution           =     -71.86764050 Ry
     ewald contribution        =    -109.50224416 Ry

     convergence has been achieved in  11 iterations

     Writing output data file ./out/GeTe.save/
 
     init_run     :     20.11s CPU     30.91s WALL (       1 calls)
     electrons    :    609.78s CPU    930.99s WALL (       1 calls)

     Called by init_run:
     wfcinit      :     19.68s CPU     30.08s WALL (       1 calls)
     wfcinit:atom :      0.05s CPU      0.05s WALL (     595 calls)
     wfcinit:wfcr :     19.46s CPU     29.76s WALL (     595 calls)
     potinit      :      0.03s CPU      0.06s WALL (       1 calls)
     hinit0       :      0.18s CPU      0.37s WALL (       1 calls)

     Called by electrons:
     c_bands      :    529.41s CPU    808.25s WALL (      12 calls)
     sum_band     :     79.03s CPU    120.70s WALL (      12 calls)
     v_of_rho     :      0.58s CPU      0.85s WALL (      12 calls)
     v_h          :      0.04s CPU      0.04s WALL (      12 calls)
     v_xc         :      0.54s CPU      0.81s WALL (      12 calls)
     newd         :      0.56s CPU      0.91s WALL (      12 calls)
     mix_rho      :      0.06s CPU      0.09s WALL (      12 calls)

     Called by c_bands:
     init_us_2    :      1.93s CPU      2.74s WALL (   14875 calls)
     cegterg      :    509.61s CPU    778.15s WALL (    7140 calls)

     Called by sum_band:
     sum_band:wei :      0.00s CPU      0.00s WALL (      12 calls)
     sum_band:loo :     78.16s CPU    119.52s WALL (      12 calls)
     sum_band:buf :      0.07s CPU      0.10s WALL (    7140 calls)
     sum_band:ini :      0.91s CPU      1.27s WALL (    7140 calls)
     sum_band:cal :     16.23s CPU     25.24s WALL (    7140 calls)
     sum_band:bec :      0.14s CPU      0.21s WALL (    7140 calls)
     addusdens    :      0.28s CPU      0.37s WALL (      12 calls)
     addusd:skk   :      0.00s CPU      0.00s WALL (      24 calls)
     addusd:dgemm :      0.04s CPU      0.05s WALL (      24 calls)
     addusd:qvan2 :      0.21s CPU      0.28s WALL (      24 calls)

     Called by *egterg:
     cdiaghg      :     17.98s CPU     27.90s WALL (   29117 calls)
     cegterg:over :     42.58s CPU     65.90s WALL (   22572 calls)
     cegterg:upda :      0.72s CPU      1.05s WALL (   22572 calls)
     cegterg:last :      1.02s CPU      1.52s WALL (   14734 calls)
     h_psi        :    419.24s CPU    638.70s WALL (   30307 calls)
     s_psi        :      1.09s CPU      1.68s WALL (   30307 calls)
     g_psi        :      0.21s CPU      0.37s WALL (   22572 calls)

     Called by h_psi:
     h_psi:calbec :     61.47s CPU     94.54s WALL (   30307 calls)
     vloc_psi     :    356.00s CPU    541.57s WALL (   30307 calls)
     add_vuspsi   :      1.36s CPU      1.92s WALL (   30307 calls)

     General routines
     calbec       :     77.54s CPU    119.59s WALL (   37447 calls)
     fft          :      0.46s CPU      0.75s WALL (     155 calls)
     ffts         :      0.02s CPU      0.05s WALL (      24 calls)
     fftw         :    410.93s CPU    625.67s WALL (  453730 calls)
     interpolate  :      0.03s CPU      0.03s WALL (      12 calls)
 
     Parallel routines
     fft_scatt_xy :      6.98s CPU     10.61s WALL (  453909 calls)
     fft_scatt_yz :    352.66s CPU    537.28s WALL (  453909 calls)
 
     PWSCF        :  10m33.89s CPU  16m 8.73s WALL

 
   This run was terminated on:   7: 9:24  13Aug2021            

=------------------------------------------------------------------------------=
   JOB DONE.
=------------------------------------------------------------------------------=
