
     Program PWSCF v.6.7MaX starts on 13Aug2021 at  7: 9:25 

     This program is part of the open-source Quantum ESPRESSO suite
     for quantum simulation of materials; please cite
         "P. Giannozzi et al., J. Phys.:Condens. Matter 21 395502 (2009);
         "P. Giannozzi et al., J. Phys.:Condens. Matter 29 465901 (2017);
          URL http://www.quantum-espresso.org", 
     in publications or presentations arising from this work. More details at
     http://www.quantum-espresso.org/quote

     Parallel version (MPI), running on     8 processors

     MPI processes distributed on     1 nodes
     R & G space division:  proc/nbgrp/npool/nimage =       8
     Waiting for input...
     Reading input from standard input

     Current dimensions of program PWSCF are:
     Max number of different atomic species (ntypx) = 10
     Max number of k-points (npk) =  40000
     Max angular momentum in pseudopotentials (lmaxx) =  3

     Atomic positions and unit cell read from directory:
     ./out/GeTe.save/
     Atomic positions from file used, from input discarded
 

     Subspace diagonalization in iterative solution of the eigenvalue problem:
     a serial algorithm will be used

     Message from routine setup:
     using ibrav=0 with symmetry is DISCOURAGED, use correct ibrav instead
     [opt_tetra]  Optimized tetrahedron method is used.
 
     Parallelization info
     --------------------
     sticks:   dense  smooth     PW     G-vecs:    dense   smooth      PW
     Min         177      90     29                 4453     1578     284
     Max         178      91     30                 4457     1579     285
     Sum        1417     721    235                35629    12627    2277
 


     bravais-lattice index     =            0
     lattice parameter (alat)  =       8.0509  a.u.
     unit-cell volume          =     368.9970 (a.u.)^3
     number of atoms/cell      =            2
     number of atomic types    =            2
     number of electrons       =        20.00
     number of Kohn-Sham states=           30
     kinetic-energy cutoff     =      40.0000  Ry
     charge density cutoff     =     320.0000  Ry
     Exchange-correlation= SLA  PW   PSX  PSC
                           (   1   4  10   8   0   0   0)

     celldm(1)=   8.050928  celldm(2)=   0.000000  celldm(3)=   0.000000
     celldm(4)=   0.000000  celldm(5)=   0.000000  celldm(6)=   0.000000

     crystal axes: (cart. coord. in units of alat)
               a(1) = (   1.000000   0.000000   0.000000 )  
               a(2) = (   0.500000   0.866025   0.000000 )  
               a(3) = (   0.500000   0.288675   0.816497 )  

     reciprocal axes: (cart. coord. in units 2 pi/alat)
               b(1) = (  1.000000 -0.577350 -0.408248 )  
               b(2) = (  0.000000  1.154701 -0.408248 )  
               b(3) = (  0.000000  0.000000  1.224745 )  


     PseudoPot. # 1 for Ge read from file:
     ./pseudo/ge_pbesol_v1.4.uspp.F.UPF
     MD5 check sum: 7bed0412183f5e553a4d27ec7023354d
     Pseudo is Ultrasoft + core correction, Zval = 14.0
     Generated by new atomic code, or converted to UPF format
     Using radial grid of  873 points,  6 beta functions with: 
                l(1) =   0
                l(2) =   0
                l(3) =   1
                l(4) =   1
                l(5) =   2
                l(6) =   2
     Q(r) pseudized with  8 coefficients,  rinner =    1.400   1.400   1.400
                                                       1.400   1.400

     PseudoPot. # 2 for Te read from file:
     ./pseudo/te_pbesol_v1.uspp.F.UPF
     MD5 check sum: 44ee7635674656c288d8e9a9a9ffd7e3
     Pseudo is Ultrasoft + core correction, Zval =  6.0
     Generated by new atomic code, or converted to UPF format
     Using radial grid of  891 points,  5 beta functions with: 
                l(1) =   0
                l(2) =   0
                l(3) =   1
                l(4) =   1
                l(5) =   2
     Q(r) pseudized with  6 coefficients,  rinner =    1.800   1.800   1.800
                                                       1.800   1.800

     atomic species   valence    mass     pseudopotential
        Ge            14.00    72.64000     Ge( 1.00)
        Te             6.00   127.60000     Te( 1.00)

     12 Sym. Ops., with inversion, found


                                    s                        frac. trans.

      isym =  1     identity                                     

 cryst.   s( 1) = (     1          0          0      )
                  (     0          1          0      )
                  (     0          0          1      )

 cart.    s( 1) = (  1.0000000  0.0000000  0.0000000 )
                  (  0.0000000  1.0000000 -0.0000000 )
                  (  0.0000000  0.0000000  1.0000000 )


      isym =  2     180 deg rotation - cart. axis [1,0,0]        

 cryst.   s( 2) = (     1          0          0      )
                  (     1         -1          0      )
                  (     1          0         -1      )

 cart.    s( 2) = (  1.0000000 -0.0000000 -0.0000000 )
                  (  0.0000000 -1.0000000  0.0000000 )
                  (  0.0000000  0.0000000 -1.0000000 )


      isym =  3     120 deg rotation - cryst. axis [0,0,1]       

 cryst.   s( 3) = (    -1          1          0      )
                  (    -1          0          0      )
                  (    -1          0          1      )

 cart.    s( 3) = ( -0.5000000 -0.8660254  0.0000000 )
                  (  0.8660254 -0.5000000 -0.0000000 )
                  (  0.0000000  0.0000000  1.0000000 )


      isym =  4     120 deg rotation - cryst. axis [0,0,-1]      

 cryst.   s( 4) = (     0         -1          0      )
                  (     1         -1          0      )
                  (     0         -1          1      )

 cart.    s( 4) = ( -0.5000000  0.8660254  0.0000000 )
                  ( -0.8660254 -0.5000000  0.0000000 )
                  (  0.0000000  0.0000000  1.0000000 )


      isym =  5     180 deg rotation - cryst. axis [0,1,0]       

 cryst.   s( 5) = (     0         -1          0      )
                  (    -1          0          0      )
                  (     0          0         -1      )

 cart.    s( 5) = ( -0.5000000 -0.8660254 -0.0000000 )
                  ( -0.8660254  0.5000000  0.0000000 )
                  (  0.0000000  0.0000000 -1.0000000 )


      isym =  6     180 deg rotation - cryst. axis [1,1,0]       

 cryst.   s( 6) = (    -1          1          0      )
                  (     0          1          0      )
                  (     0          1         -1      )

 cart.    s( 6) = ( -0.5000000  0.8660254 -0.0000000 )
                  (  0.8660254  0.5000000 -0.0000000 )
                  (  0.0000000  0.0000000 -1.0000000 )


      isym =  7     inversion                                    

 cryst.   s( 7) = (    -1          0          0      )
                  (     0         -1          0      )
                  (     0          0         -1      )

 cart.    s( 7) = ( -1.0000000  0.0000000  0.0000000 )
                  (  0.0000000 -1.0000000  0.0000000 )
                  (  0.0000000  0.0000000 -1.0000000 )


      isym =  8     inv. 180 deg rotation - cart. axis [1,0,0]   

 cryst.   s( 8) = (    -1          0          0      )
                  (    -1          1          0      )
                  (    -1          0          1      )

 cart.    s( 8) = ( -1.0000000  0.0000000  0.0000000 )
                  (  0.0000000  1.0000000 -0.0000000 )
                  (  0.0000000  0.0000000  1.0000000 )


      isym =  9     inv. 120 deg rotation - cryst. axis [0,0,1]  

 cryst.   s( 9) = (     1         -1          0      )
                  (     1          0          0      )
                  (     1          0         -1      )

 cart.    s( 9) = (  0.5000000  0.8660254 -0.0000000 )
                  ( -0.8660254  0.5000000  0.0000000 )
                  (  0.0000000  0.0000000 -1.0000000 )


      isym = 10     inv. 120 deg rotation - cryst. axis [0,0,-1] 

 cryst.   s(10) = (     0          1          0      )
                  (    -1          1          0      )
                  (     0          1         -1      )

 cart.    s(10) = (  0.5000000 -0.8660254 -0.0000000 )
                  (  0.8660254  0.5000000 -0.0000000 )
                  (  0.0000000  0.0000000 -1.0000000 )


      isym = 11     inv. 180 deg rotation - cryst. axis [0,1,0]  

 cryst.   s(11) = (     0          1          0      )
                  (     1          0          0      )
                  (     0          0          1      )

 cart.    s(11) = (  0.5000000  0.8660254  0.0000000 )
                  (  0.8660254 -0.5000000 -0.0000000 )
                  (  0.0000000  0.0000000  1.0000000 )


      isym = 12     inv. 180 deg rotation - cryst. axis [1,1,0]  

 cryst.   s(12) = (     1         -1          0      )
                  (     0         -1          0      )
                  (     0         -1          1      )

 cart.    s(12) = (  0.5000000 -0.8660254  0.0000000 )
                  ( -0.8660254 -0.5000000  0.0000000 )
                  (  0.0000000  0.0000000  1.0000000 )


   Cartesian axes

     site n.     atom                  positions (alat units)
         1           Ge  tau(   1) = (   0.0000000   0.0000000   0.0000000  )
         2           Te  tau(   2) = (   1.0000000   0.5773503   0.4082483  )

   Crystallographic axes

     site n.     atom                  positions (cryst. coord.)
         1           Ge  tau(   1) = (  0.0000000  0.0000000  0.0000000  )
         2           Te  tau(   2) = (  0.5000000  0.5000000  0.5000000  )

     number of k points=  4563 (tetrahedron method)
                       cart. coord. in units 2pi/alat
        k(    1) = (   0.0192308   0.0111029   0.0078509), wk =   0.0002276
        k(    2) = (   0.0192308   0.0111029   0.0549565), wk =   0.0002276
        k(    3) = (   0.0192308   0.0111029   0.1020621), wk =   0.0002276
        k(    4) = (   0.0192308   0.0111029   0.1491676), wk =   0.0002276
        k(    5) = (   0.0192308   0.0111029   0.1962732), wk =   0.0002276
        k(    6) = (   0.0192308   0.0111029   0.2433788), wk =   0.0002276
        k(    7) = (   0.0192308   0.0111029   0.2904844), wk =   0.0002276
        k(    8) = (   0.0192308   0.0111029   0.3375899), wk =   0.0002276
        k(    9) = (   0.0192308   0.0111029   0.3846955), wk =   0.0002276
        k(   10) = (   0.0192308   0.0111029   0.4318011), wk =   0.0002276
        k(   11) = (   0.0192308   0.0111029   0.4789066), wk =   0.0002276
        k(   12) = (   0.0192308   0.0111029   0.5260122), wk =   0.0002276
        k(   13) = (   0.0192308   0.0111029   0.5731178), wk =   0.0002276
        k(   14) = (   0.0192308   0.0111029  -0.6045215), wk =   0.0002276
        k(   15) = (   0.0192308   0.0111029  -0.5574159), wk =   0.0002276
        k(   16) = (   0.0192308   0.0111029  -0.5103104), wk =   0.0002276
        k(   17) = (   0.0192308   0.0111029  -0.4632048), wk =   0.0002276
        k(   18) = (   0.0192308   0.0111029  -0.4160992), wk =   0.0002276
        k(   19) = (   0.0192308   0.0111029  -0.3689936), wk =   0.0002276
        k(   20) = (   0.0192308   0.0111029  -0.3218881), wk =   0.0002276
        k(   21) = (   0.0192308   0.0111029  -0.2747825), wk =   0.0002276
        k(   22) = (   0.0192308   0.0111029  -0.2276769), wk =   0.0002276
        k(   23) = (   0.0192308   0.0111029  -0.1805714), wk =   0.0002276
        k(   24) = (   0.0192308   0.0111029  -0.1334658), wk =   0.0002276
        k(   25) = (   0.0192308   0.0111029  -0.0863602), wk =   0.0002276
        k(   26) = (   0.0192308   0.0111029  -0.0392546), wk =   0.0002276
        k(   27) = (   0.0192308   0.0555144  -0.0078509), wk =   0.0004552
        k(   28) = (   0.0192308   0.0555144   0.0392546), wk =   0.0004552
        k(   29) = (   0.0192308   0.0555144   0.0863602), wk =   0.0004552
        k(   30) = (   0.0192308   0.0555144   0.1334658), wk =   0.0004552
        k(   31) = (   0.0192308   0.0555144   0.1805714), wk =   0.0004552
        k(   32) = (   0.0192308   0.0555144   0.2276769), wk =   0.0004552
        k(   33) = (   0.0192308   0.0555144   0.2747825), wk =   0.0004552
        k(   34) = (   0.0192308   0.0555144   0.3218881), wk =   0.0004552
        k(   35) = (   0.0192308   0.0555144   0.3689936), wk =   0.0004552
        k(   36) = (   0.0192308   0.0555144   0.4160992), wk =   0.0004552
        k(   37) = (   0.0192308   0.0555144   0.4632048), wk =   0.0004552
        k(   38) = (   0.0192308   0.0555144   0.5103104), wk =   0.0004552
        k(   39) = (   0.0192308   0.0555144   0.5574159), wk =   0.0004552
        k(   40) = (   0.0192308   0.0555144  -0.6202234), wk =   0.0004552
        k(   41) = (   0.0192308   0.0555144  -0.5731178), wk =   0.0004552
        k(   42) = (   0.0192308   0.0555144  -0.5260122), wk =   0.0004552
        k(   43) = (   0.0192308   0.0555144  -0.4789066), wk =   0.0004552
        k(   44) = (   0.0192308   0.0555144  -0.4318011), wk =   0.0004552
        k(   45) = (   0.0192308   0.0555144  -0.3846955), wk =   0.0004552
        k(   46) = (   0.0192308   0.0555144  -0.3375899), wk =   0.0004552
        k(   47) = (   0.0192308   0.0555144  -0.2904844), wk =   0.0004552
        k(   48) = (   0.0192308   0.0555144  -0.2433788), wk =   0.0004552
        k(   49) = (   0.0192308   0.0555144  -0.1962732), wk =   0.0004552
        k(   50) = (   0.0192308   0.0555144  -0.1491676), wk =   0.0004552
        k(   51) = (   0.0192308   0.0555144  -0.1020621), wk =   0.0004552
        k(   52) = (   0.0192308   0.0555144  -0.0549565), wk =   0.0004552
        k(   53) = (   0.0192308   0.0999260  -0.0235528), wk =   0.0004552
        k(   54) = (   0.0192308   0.0999260   0.0235528), wk =   0.0004552
        k(   55) = (   0.0192308   0.0999260   0.0706584), wk =   0.0004552
        k(   56) = (   0.0192308   0.0999260   0.1177639), wk =   0.0004552
        k(   57) = (   0.0192308   0.0999260   0.1648695), wk =   0.0004552
        k(   58) = (   0.0192308   0.0999260   0.2119751), wk =   0.0004552
        k(   59) = (   0.0192308   0.0999260   0.2590806), wk =   0.0004552
        k(   60) = (   0.0192308   0.0999260   0.3061862), wk =   0.0004552
        k(   61) = (   0.0192308   0.0999260   0.3532918), wk =   0.0004552
        k(   62) = (   0.0192308   0.0999260   0.4003974), wk =   0.0004552
        k(   63) = (   0.0192308   0.0999260   0.4475029), wk =   0.0004552
        k(   64) = (   0.0192308   0.0999260   0.4946085), wk =   0.0004552
        k(   65) = (   0.0192308   0.0999260   0.5417141), wk =   0.0004552
        k(   66) = (   0.0192308   0.0999260  -0.6359252), wk =   0.0004552
        k(   67) = (   0.0192308   0.0999260  -0.5888196), wk =   0.0004552
        k(   68) = (   0.0192308   0.0999260  -0.5417141), wk =   0.0004552
        k(   69) = (   0.0192308   0.0999260  -0.4946085), wk =   0.0004552
        k(   70) = (   0.0192308   0.0999260  -0.4475029), wk =   0.0004552
        k(   71) = (   0.0192308   0.0999260  -0.4003974), wk =   0.0004552
        k(   72) = (   0.0192308   0.0999260  -0.3532918), wk =   0.0004552
        k(   73) = (   0.0192308   0.0999260  -0.3061862), wk =   0.0004552
        k(   74) = (   0.0192308   0.0999260  -0.2590806), wk =   0.0004552
        k(   75) = (   0.0192308   0.0999260  -0.2119751), wk =   0.0004552
        k(   76) = (   0.0192308   0.0999260  -0.1648695), wk =   0.0004552
        k(   77) = (   0.0192308   0.0999260  -0.1177639), wk =   0.0004552
        k(   78) = (   0.0192308   0.0999260  -0.0706584), wk =   0.0004552
        k(   79) = (   0.0192308   0.1443376  -0.0392546), wk =   0.0004552
        k(   80) = (   0.0192308   0.1443376   0.0078509), wk =   0.0004552
        k(   81) = (   0.0192308   0.1443376   0.0549565), wk =   0.0004552
        k(   82) = (   0.0192308   0.1443376   0.1020621), wk =   0.0004552
        k(   83) = (   0.0192308   0.1443376   0.1491676), wk =   0.0004552
        k(   84) = (   0.0192308   0.1443376   0.1962732), wk =   0.0004552
        k(   85) = (   0.0192308   0.1443376   0.2433788), wk =   0.0004552
        k(   86) = (   0.0192308   0.1443376   0.2904844), wk =   0.0004552
        k(   87) = (   0.0192308   0.1443376   0.3375899), wk =   0.0004552
        k(   88) = (   0.0192308   0.1443376   0.3846955), wk =   0.0004552
        k(   89) = (   0.0192308   0.1443376   0.4318011), wk =   0.0004552
        k(   90) = (   0.0192308   0.1443376   0.4789066), wk =   0.0004552
        k(   91) = (   0.0192308   0.1443376   0.5260122), wk =   0.0004552
        k(   92) = (   0.0192308   0.1443376  -0.6516271), wk =   0.0004552
        k(   93) = (   0.0192308   0.1443376  -0.6045215), wk =   0.0004552
        k(   94) = (   0.0192308   0.1443376  -0.5574159), wk =   0.0004552
        k(   95) = (   0.0192308   0.1443376  -0.5103104), wk =   0.0004552
        k(   96) = (   0.0192308   0.1443376  -0.4632048), wk =   0.0004552
        k(   97) = (   0.0192308   0.1443376  -0.4160992), wk =   0.0004552
        k(   98) = (   0.0192308   0.1443376  -0.3689936), wk =   0.0004552
        k(   99) = (   0.0192308   0.1443376  -0.3218881), wk =   0.0004552
        k(  100) = (   0.0192308   0.1443376  -0.2747825), wk =   0.0004552
        k(  101) = (   0.0192308   0.1443376  -0.2276769), wk =   0.0004552
        k(  102) = (   0.0192308   0.1443376  -0.1805714), wk =   0.0004552
        k(  103) = (   0.0192308   0.1443376  -0.1334658), wk =   0.0004552
        k(  104) = (   0.0192308   0.1443376  -0.0863602), wk =   0.0004552
        k(  105) = (   0.0192308   0.1887491  -0.0549565), wk =   0.0004552
        k(  106) = (   0.0192308   0.1887491  -0.0078509), wk =   0.0004552
        k(  107) = (   0.0192308   0.1887491   0.0392546), wk =   0.0004552
        k(  108) = (   0.0192308   0.1887491   0.0863602), wk =   0.0004552
        k(  109) = (   0.0192308   0.1887491   0.1334658), wk =   0.0004552
        k(  110) = (   0.0192308   0.1887491   0.1805714), wk =   0.0004552
        k(  111) = (   0.0192308   0.1887491   0.2276769), wk =   0.0004552
        k(  112) = (   0.0192308   0.1887491   0.2747825), wk =   0.0004552
        k(  113) = (   0.0192308   0.1887491   0.3218881), wk =   0.0004552
        k(  114) = (   0.0192308   0.1887491   0.3689936), wk =   0.0004552
        k(  115) = (   0.0192308   0.1887491   0.4160992), wk =   0.0004552
        k(  116) = (   0.0192308   0.1887491   0.4632048), wk =   0.0004552
        k(  117) = (   0.0192308   0.1887491   0.5103104), wk =   0.0004552
        k(  118) = (   0.0192308   0.1887491  -0.6673289), wk =   0.0004552
        k(  119) = (   0.0192308   0.1887491  -0.6202234), wk =   0.0004552
        k(  120) = (   0.0192308   0.1887491  -0.5731178), wk =   0.0004552
        k(  121) = (   0.0192308   0.1887491  -0.5260122), wk =   0.0004552
        k(  122) = (   0.0192308   0.1887491  -0.4789066), wk =   0.0004552
        k(  123) = (   0.0192308   0.1887491  -0.4318011), wk =   0.0004552
        k(  124) = (   0.0192308   0.1887491  -0.3846955), wk =   0.0004552
        k(  125) = (   0.0192308   0.1887491  -0.3375899), wk =   0.0004552
        k(  126) = (   0.0192308   0.1887491  -0.2904844), wk =   0.0004552
        k(  127) = (   0.0192308   0.1887491  -0.2433788), wk =   0.0004552
        k(  128) = (   0.0192308   0.1887491  -0.1962732), wk =   0.0004552
        k(  129) = (   0.0192308   0.1887491  -0.1491676), wk =   0.0004552
        k(  130) = (   0.0192308   0.1887491  -0.1020621), wk =   0.0004552
        k(  131) = (   0.0192308   0.2331607  -0.0706584), wk =   0.0004552
        k(  132) = (   0.0192308   0.2331607  -0.0235528), wk =   0.0004552
        k(  133) = (   0.0192308   0.2331607   0.0235528), wk =   0.0004552
        k(  134) = (   0.0192308   0.2331607   0.0706584), wk =   0.0004552
        k(  135) = (   0.0192308   0.2331607   0.1177639), wk =   0.0004552
        k(  136) = (   0.0192308   0.2331607   0.1648695), wk =   0.0004552
        k(  137) = (   0.0192308   0.2331607   0.2119751), wk =   0.0004552
        k(  138) = (   0.0192308   0.2331607   0.2590806), wk =   0.0004552
        k(  139) = (   0.0192308   0.2331607   0.3061862), wk =   0.0004552
        k(  140) = (   0.0192308   0.2331607   0.3532918), wk =   0.0004552
        k(  141) = (   0.0192308   0.2331607   0.4003974), wk =   0.0004552
        k(  142) = (   0.0192308   0.2331607   0.4475029), wk =   0.0004552
        k(  143) = (   0.0192308   0.2331607   0.4946085), wk =   0.0004552
        k(  144) = (   0.0192308   0.2331607  -0.6830308), wk =   0.0004552
        k(  145) = (   0.0192308   0.2331607  -0.6359252), wk =   0.0004552
        k(  146) = (   0.0192308   0.2331607  -0.5888196), wk =   0.0004552
        k(  147) = (   0.0192308   0.2331607  -0.5417141), wk =   0.0004552
        k(  148) = (   0.0192308   0.2331607  -0.4946085), wk =   0.0004552
        k(  149) = (   0.0192308   0.2331607  -0.4475029), wk =   0.0004552
        k(  150) = (   0.0192308   0.2331607  -0.4003974), wk =   0.0004552
        k(  151) = (   0.0192308   0.2331607  -0.3532918), wk =   0.0004552
        k(  152) = (   0.0192308   0.2331607  -0.3061862), wk =   0.0004552
        k(  153) = (   0.0192308   0.2331607  -0.2590806), wk =   0.0004552
        k(  154) = (   0.0192308   0.2331607  -0.2119751), wk =   0.0004552
        k(  155) = (   0.0192308   0.2331607  -0.1648695), wk =   0.0004552
        k(  156) = (   0.0192308   0.2331607  -0.1177639), wk =   0.0004552
        k(  157) = (   0.0192308   0.2775722  -0.0863602), wk =   0.0004552
        k(  158) = (   0.0192308   0.2775722  -0.0392546), wk =   0.0004552
        k(  159) = (   0.0192308   0.2775722   0.0078509), wk =   0.0004552
        k(  160) = (   0.0192308   0.2775722   0.0549565), wk =   0.0004552
        k(  161) = (   0.0192308   0.2775722   0.1020621), wk =   0.0004552
        k(  162) = (   0.0192308   0.2775722   0.1491676), wk =   0.0004552
        k(  163) = (   0.0192308   0.2775722   0.1962732), wk =   0.0004552
        k(  164) = (   0.0192308   0.2775722   0.2433788), wk =   0.0004552
        k(  165) = (   0.0192308   0.2775722   0.2904844), wk =   0.0004552
        k(  166) = (   0.0192308   0.2775722   0.3375899), wk =   0.0004552
        k(  167) = (   0.0192308   0.2775722   0.3846955), wk =   0.0004552
        k(  168) = (   0.0192308   0.2775722   0.4318011), wk =   0.0004552
        k(  169) = (   0.0192308   0.2775722   0.4789066), wk =   0.0004552
        k(  170) = (   0.0192308   0.2775722  -0.6987327), wk =   0.0004552
        k(  171) = (   0.0192308   0.2775722  -0.6516271), wk =   0.0004552
        k(  172) = (   0.0192308   0.2775722  -0.6045215), wk =   0.0004552
        k(  173) = (   0.0192308   0.2775722  -0.5574159), wk =   0.0004552
        k(  174) = (   0.0192308   0.2775722  -0.5103104), wk =   0.0004552
        k(  175) = (   0.0192308   0.2775722  -0.4632048), wk =   0.0004552
        k(  176) = (   0.0192308   0.2775722  -0.4160992), wk =   0.0004552
        k(  177) = (   0.0192308   0.2775722  -0.3689936), wk =   0.0004552
        k(  178) = (   0.0192308   0.2775722  -0.3218881), wk =   0.0004552
        k(  179) = (   0.0192308   0.2775722  -0.2747825), wk =   0.0004552
        k(  180) = (   0.0192308   0.2775722  -0.2276769), wk =   0.0004552
        k(  181) = (   0.0192308   0.2775722  -0.1805714), wk =   0.0004552
        k(  182) = (   0.0192308   0.2775722  -0.1334658), wk =   0.0004552
        k(  183) = (   0.0192308   0.3219838  -0.1020621), wk =   0.0004552
        k(  184) = (   0.0192308   0.3219838  -0.0549565), wk =   0.0004552
        k(  185) = (   0.0192308   0.3219838  -0.0078509), wk =   0.0004552
        k(  186) = (   0.0192308   0.3219838   0.0392546), wk =   0.0004552
        k(  187) = (   0.0192308   0.3219838   0.0863602), wk =   0.0004552
        k(  188) = (   0.0192308   0.3219838   0.1334658), wk =   0.0004552
        k(  189) = (   0.0192308   0.3219838   0.1805714), wk =   0.0004552
        k(  190) = (   0.0192308   0.3219838   0.2276769), wk =   0.0004552
        k(  191) = (   0.0192308   0.3219838   0.2747825), wk =   0.0004552
        k(  192) = (   0.0192308   0.3219838   0.3218881), wk =   0.0004552
        k(  193) = (   0.0192308   0.3219838   0.3689936), wk =   0.0004552
        k(  194) = (   0.0192308   0.3219838   0.4160992), wk =   0.0004552
        k(  195) = (   0.0192308   0.3219838   0.4632048), wk =   0.0004552
        k(  196) = (   0.0192308   0.3219838  -0.7144345), wk =   0.0004552
        k(  197) = (   0.0192308   0.3219838  -0.6673289), wk =   0.0004552
        k(  198) = (   0.0192308   0.3219838  -0.6202234), wk =   0.0004552
        k(  199) = (   0.0192308   0.3219838  -0.5731178), wk =   0.0004552
        k(  200) = (   0.0192308   0.3219838  -0.5260122), wk =   0.0004552
        k(  201) = (   0.0192308   0.3219838  -0.4789066), wk =   0.0004552
        k(  202) = (   0.0192308   0.3219838  -0.4318011), wk =   0.0004552
        k(  203) = (   0.0192308   0.3219838  -0.3846955), wk =   0.0004552
        k(  204) = (   0.0192308   0.3219838  -0.3375899), wk =   0.0004552
        k(  205) = (   0.0192308   0.3219838  -0.2904844), wk =   0.0004552
        k(  206) = (   0.0192308   0.3219838  -0.2433788), wk =   0.0004552
        k(  207) = (   0.0192308   0.3219838  -0.1962732), wk =   0.0004552
        k(  208) = (   0.0192308   0.3219838  -0.1491676), wk =   0.0004552
        k(  209) = (   0.0192308   0.3663954  -0.1177639), wk =   0.0004552
        k(  210) = (   0.0192308   0.3663954  -0.0706584), wk =   0.0004552
        k(  211) = (   0.0192308   0.3663954  -0.0235528), wk =   0.0004552
        k(  212) = (   0.0192308   0.3663954   0.0235528), wk =   0.0004552
        k(  213) = (   0.0192308   0.3663954   0.0706584), wk =   0.0004552
        k(  214) = (   0.0192308   0.3663954   0.1177639), wk =   0.0004552
        k(  215) = (   0.0192308   0.3663954   0.1648695), wk =   0.0004552
        k(  216) = (   0.0192308   0.3663954   0.2119751), wk =   0.0004552
        k(  217) = (   0.0192308   0.3663954   0.2590806), wk =   0.0004552
        k(  218) = (   0.0192308   0.3663954   0.3061862), wk =   0.0004552
        k(  219) = (   0.0192308   0.3663954   0.3532918), wk =   0.0004552
        k(  220) = (   0.0192308   0.3663954   0.4003974), wk =   0.0004552
        k(  221) = (   0.0192308   0.3663954   0.4475029), wk =   0.0004552
        k(  222) = (   0.0192308   0.3663954  -0.7301364), wk =   0.0004552
        k(  223) = (   0.0192308   0.3663954  -0.6830308), wk =   0.0004552
        k(  224) = (   0.0192308   0.3663954  -0.6359252), wk =   0.0004552
        k(  225) = (   0.0192308   0.3663954  -0.5888196), wk =   0.0004552
        k(  226) = (   0.0192308   0.3663954  -0.5417141), wk =   0.0004552
        k(  227) = (   0.0192308   0.3663954  -0.4946085), wk =   0.0004552
        k(  228) = (   0.0192308   0.3663954  -0.4475029), wk =   0.0004552
        k(  229) = (   0.0192308   0.3663954  -0.4003974), wk =   0.0004552
        k(  230) = (   0.0192308   0.3663954  -0.3532918), wk =   0.0004552
        k(  231) = (   0.0192308   0.3663954  -0.3061862), wk =   0.0004552
        k(  232) = (   0.0192308   0.3663954  -0.2590806), wk =   0.0004552
        k(  233) = (   0.0192308   0.3663954  -0.2119751), wk =   0.0004552
        k(  234) = (   0.0192308   0.3663954  -0.1648695), wk =   0.0004552
        k(  235) = (   0.0192308   0.4108069  -0.1334658), wk =   0.0004552
        k(  236) = (   0.0192308   0.4108069  -0.0863602), wk =   0.0004552
        k(  237) = (   0.0192308   0.4108069  -0.0392546), wk =   0.0004552
        k(  238) = (   0.0192308   0.4108069   0.0078509), wk =   0.0004552
        k(  239) = (   0.0192308   0.4108069   0.0549565), wk =   0.0004552
        k(  240) = (   0.0192308   0.4108069   0.1020621), wk =   0.0004552
        k(  241) = (   0.0192308   0.4108069   0.1491676), wk =   0.0004552
        k(  242) = (   0.0192308   0.4108069   0.1962732), wk =   0.0004552
        k(  243) = (   0.0192308   0.4108069   0.2433788), wk =   0.0004552
        k(  244) = (   0.0192308   0.4108069   0.2904844), wk =   0.0004552
        k(  245) = (   0.0192308   0.4108069   0.3375899), wk =   0.0004552
        k(  246) = (   0.0192308   0.4108069   0.3846955), wk =   0.0004552
        k(  247) = (   0.0192308   0.4108069   0.4318011), wk =   0.0004552
        k(  248) = (   0.0192308   0.4108069  -0.7458382), wk =   0.0004552
        k(  249) = (   0.0192308   0.4108069  -0.6987327), wk =   0.0004552
        k(  250) = (   0.0192308   0.4108069  -0.6516271), wk =   0.0004552
        k(  251) = (   0.0192308   0.4108069  -0.6045215), wk =   0.0004552
        k(  252) = (   0.0192308   0.4108069  -0.5574159), wk =   0.0004552
        k(  253) = (   0.0192308   0.4108069  -0.5103104), wk =   0.0004552
        k(  254) = (   0.0192308   0.4108069  -0.4632048), wk =   0.0004552
        k(  255) = (   0.0192308   0.4108069  -0.4160992), wk =   0.0004552
        k(  256) = (   0.0192308   0.4108069  -0.3689936), wk =   0.0004552
        k(  257) = (   0.0192308   0.4108069  -0.3218881), wk =   0.0004552
        k(  258) = (   0.0192308   0.4108069  -0.2747825), wk =   0.0004552
        k(  259) = (   0.0192308   0.4108069  -0.2276769), wk =   0.0004552
        k(  260) = (   0.0192308   0.4108069  -0.1805714), wk =   0.0004552
        k(  261) = (   0.0192308   0.4552185  -0.1491676), wk =   0.0004552
        k(  262) = (   0.0192308   0.4552185  -0.1020621), wk =   0.0004552
        k(  263) = (   0.0192308   0.4552185  -0.0549565), wk =   0.0004552
        k(  264) = (   0.0192308   0.4552185  -0.0078509), wk =   0.0004552
        k(  265) = (   0.0192308   0.4552185   0.0392546), wk =   0.0004552
        k(  266) = (   0.0192308   0.4552185   0.0863602), wk =   0.0004552
        k(  267) = (   0.0192308   0.4552185   0.1334658), wk =   0.0004552
        k(  268) = (   0.0192308   0.4552185   0.1805714), wk =   0.0004552
        k(  269) = (   0.0192308   0.4552185   0.2276769), wk =   0.0004552
        k(  270) = (   0.0192308   0.4552185   0.2747825), wk =   0.0004552
        k(  271) = (   0.0192308   0.4552185   0.3218881), wk =   0.0004552
        k(  272) = (   0.0192308   0.4552185   0.3689936), wk =   0.0004552
        k(  273) = (   0.0192308   0.4552185   0.4160992), wk =   0.0004552
        k(  274) = (   0.0192308   0.4552185  -0.7615401), wk =   0.0004552
        k(  275) = (   0.0192308   0.4552185  -0.7144345), wk =   0.0004552
        k(  276) = (   0.0192308   0.4552185  -0.6673289), wk =   0.0004552
        k(  277) = (   0.0192308   0.4552185  -0.6202234), wk =   0.0004552
        k(  278) = (   0.0192308   0.4552185  -0.5731178), wk =   0.0004552
        k(  279) = (   0.0192308   0.4552185  -0.5260122), wk =   0.0004552
        k(  280) = (   0.0192308   0.4552185  -0.4789066), wk =   0.0004552
        k(  281) = (   0.0192308   0.4552185  -0.4318011), wk =   0.0004552
        k(  282) = (   0.0192308   0.4552185  -0.3846955), wk =   0.0004552
        k(  283) = (   0.0192308   0.4552185  -0.3375899), wk =   0.0004552
        k(  284) = (   0.0192308   0.4552185  -0.2904844), wk =   0.0004552
        k(  285) = (   0.0192308   0.4552185  -0.2433788), wk =   0.0004552
        k(  286) = (   0.0192308   0.4552185  -0.1962732), wk =   0.0004552
        k(  287) = (   0.0192308   0.4996300  -0.1648695), wk =   0.0004552
        k(  288) = (   0.0192308   0.4996300  -0.1177639), wk =   0.0004552
        k(  289) = (   0.0192308   0.4996300  -0.0706584), wk =   0.0004552
        k(  290) = (   0.0192308   0.4996300  -0.0235528), wk =   0.0004552
        k(  291) = (   0.0192308   0.4996300   0.0235528), wk =   0.0004552
        k(  292) = (   0.0192308   0.4996300   0.0706584), wk =   0.0004552
        k(  293) = (   0.0192308   0.4996300   0.1177639), wk =   0.0004552
        k(  294) = (   0.0192308   0.4996300   0.1648695), wk =   0.0004552
        k(  295) = (   0.0192308   0.4996300   0.2119751), wk =   0.0004552
        k(  296) = (   0.0192308   0.4996300   0.2590806), wk =   0.0004552
        k(  297) = (   0.0192308   0.4996300   0.3061862), wk =   0.0004552
        k(  298) = (   0.0192308   0.4996300   0.3532918), wk =   0.0004552
        k(  299) = (   0.0192308   0.4996300   0.4003974), wk =   0.0004552
        k(  300) = (   0.0192308   0.4996300  -0.7772419), wk =   0.0004552
        k(  301) = (   0.0192308   0.4996300  -0.7301364), wk =   0.0004552
        k(  302) = (   0.0192308   0.4996300  -0.6830308), wk =   0.0004552
        k(  303) = (   0.0192308   0.4996300  -0.6359252), wk =   0.0004552
        k(  304) = (   0.0192308   0.4996300  -0.5888196), wk =   0.0004552
        k(  305) = (   0.0192308   0.4996300  -0.5417141), wk =   0.0004552
        k(  306) = (   0.0192308   0.4996300  -0.4946085), wk =   0.0004552
        k(  307) = (   0.0192308   0.4996300  -0.4475029), wk =   0.0004552
        k(  308) = (   0.0192308   0.4996300  -0.4003974), wk =   0.0004552
        k(  309) = (   0.0192308   0.4996300  -0.3532918), wk =   0.0004552
        k(  310) = (   0.0192308   0.4996300  -0.3061862), wk =   0.0004552
        k(  311) = (   0.0192308   0.4996300  -0.2590806), wk =   0.0004552
        k(  312) = (   0.0192308   0.4996300  -0.2119751), wk =   0.0004552
        k(  313) = (   0.0192308   0.5440416  -0.1805714), wk =   0.0004552
        k(  314) = (   0.0192308   0.5440416  -0.1334658), wk =   0.0004552
        k(  315) = (   0.0192308   0.5440416  -0.0863602), wk =   0.0004552
        k(  316) = (   0.0192308   0.5440416  -0.0392546), wk =   0.0004552
        k(  317) = (   0.0192308   0.5440416   0.0078509), wk =   0.0004552
        k(  318) = (   0.0192308   0.5440416   0.0549565), wk =   0.0004552
        k(  319) = (   0.0192308   0.5440416   0.1020621), wk =   0.0004552
        k(  320) = (   0.0192308   0.5440416   0.1491676), wk =   0.0004552
        k(  321) = (   0.0192308   0.5440416   0.1962732), wk =   0.0004552
        k(  322) = (   0.0192308   0.5440416   0.2433788), wk =   0.0004552
        k(  323) = (   0.0192308   0.5440416   0.2904844), wk =   0.0004552
        k(  324) = (   0.0192308   0.5440416   0.3375899), wk =   0.0004552
        k(  325) = (   0.0192308   0.5440416   0.3846955), wk =   0.0004552
        k(  326) = (   0.0192308   0.5440416  -0.7929438), wk =   0.0004552
        k(  327) = (   0.0192308   0.5440416  -0.7458382), wk =   0.0004552
        k(  328) = (   0.0192308   0.5440416  -0.6987327), wk =   0.0004552
        k(  329) = (   0.0192308   0.5440416  -0.6516271), wk =   0.0004552
        k(  330) = (   0.0192308   0.5440416  -0.6045215), wk =   0.0004552
        k(  331) = (   0.0192308   0.5440416  -0.5574159), wk =   0.0004552
        k(  332) = (   0.0192308   0.5440416  -0.5103104), wk =   0.0004552
        k(  333) = (   0.0192308   0.5440416  -0.4632048), wk =   0.0004552
        k(  334) = (   0.0192308   0.5440416  -0.4160992), wk =   0.0004552
        k(  335) = (   0.0192308   0.5440416  -0.3689936), wk =   0.0004552
        k(  336) = (   0.0192308   0.5440416  -0.3218881), wk =   0.0004552
        k(  337) = (   0.0192308   0.5440416  -0.2747825), wk =   0.0004552
        k(  338) = (   0.0192308   0.5440416  -0.2276769), wk =   0.0004552
        k(  339) = (   0.0192308  -0.5662474   0.2119751), wk =   0.0004552
        k(  340) = (   0.0192308  -0.5662474   0.2590806), wk =   0.0004552
        k(  341) = (   0.0192308  -0.5662474   0.3061862), wk =   0.0004552
        k(  342) = (   0.0192308  -0.5662474   0.3532918), wk =   0.0004552
        k(  343) = (   0.0192308  -0.5662474   0.4003974), wk =   0.0004552
        k(  344) = (   0.0192308  -0.5662474   0.4475029), wk =   0.0004552
        k(  345) = (   0.0192308  -0.5662474   0.4946085), wk =   0.0004552
        k(  346) = (   0.0192308  -0.5662474   0.5417141), wk =   0.0004552
        k(  347) = (   0.0192308  -0.5662474   0.5888196), wk =   0.0004552
        k(  348) = (   0.0192308  -0.5662474   0.6359252), wk =   0.0004552
        k(  349) = (   0.0192308  -0.5662474   0.6830308), wk =   0.0004552
        k(  350) = (   0.0192308  -0.5662474   0.7301364), wk =   0.0004552
        k(  351) = (   0.0192308  -0.5662474   0.7772419), wk =   0.0004552
        k(  352) = (   0.0192308  -0.5662474  -0.4003974), wk =   0.0004552
        k(  353) = (   0.0192308  -0.5662474  -0.3532918), wk =   0.0004552
        k(  354) = (   0.0192308  -0.5662474  -0.3061862), wk =   0.0004552
        k(  355) = (   0.0192308  -0.5662474  -0.2590806), wk =   0.0004552
        k(  356) = (   0.0192308  -0.5662474  -0.2119751), wk =   0.0004552
        k(  357) = (   0.0192308  -0.5662474  -0.1648695), wk =   0.0004552
        k(  358) = (   0.0192308  -0.5662474  -0.1177639), wk =   0.0004552
        k(  359) = (   0.0192308  -0.5662474  -0.0706584), wk =   0.0004552
        k(  360) = (   0.0192308  -0.5662474  -0.0235528), wk =   0.0004552
        k(  361) = (   0.0192308  -0.5662474   0.0235528), wk =   0.0004552
        k(  362) = (   0.0192308  -0.5662474   0.0706584), wk =   0.0004552
        k(  363) = (   0.0192308  -0.5662474   0.1177639), wk =   0.0004552
        k(  364) = (   0.0192308  -0.5662474   0.1648695), wk =   0.0004552
        k(  365) = (   0.0192308  -0.5218358   0.1962732), wk =   0.0004552
        k(  366) = (   0.0192308  -0.5218358   0.2433788), wk =   0.0004552
        k(  367) = (   0.0192308  -0.5218358   0.2904844), wk =   0.0004552
        k(  368) = (   0.0192308  -0.5218358   0.3375899), wk =   0.0004552
        k(  369) = (   0.0192308  -0.5218358   0.3846955), wk =   0.0004552
        k(  370) = (   0.0192308  -0.5218358   0.4318011), wk =   0.0004552
        k(  371) = (   0.0192308  -0.5218358   0.4789066), wk =   0.0004552
        k(  372) = (   0.0192308  -0.5218358   0.5260122), wk =   0.0004552
        k(  373) = (   0.0192308  -0.5218358   0.5731178), wk =   0.0004552
        k(  374) = (   0.0192308  -0.5218358   0.6202234), wk =   0.0004552
        k(  375) = (   0.0192308  -0.5218358   0.6673289), wk =   0.0004552
        k(  376) = (   0.0192308  -0.5218358   0.7144345), wk =   0.0004552
        k(  377) = (   0.0192308  -0.5218358   0.7615401), wk =   0.0004552
        k(  378) = (   0.0192308  -0.5218358  -0.4160992), wk =   0.0004552
        k(  379) = (   0.0192308  -0.5218358  -0.3689936), wk =   0.0004552
        k(  380) = (   0.0192308  -0.5218358  -0.3218881), wk =   0.0004552
        k(  381) = (   0.0192308  -0.5218358  -0.2747825), wk =   0.0004552
        k(  382) = (   0.0192308  -0.5218358  -0.2276769), wk =   0.0004552
        k(  383) = (   0.0192308  -0.5218358  -0.1805714), wk =   0.0004552
        k(  384) = (   0.0192308  -0.5218358  -0.1334658), wk =   0.0004552
        k(  385) = (   0.0192308  -0.5218358  -0.0863602), wk =   0.0004552
        k(  386) = (   0.0192308  -0.5218358  -0.0392546), wk =   0.0004552
        k(  387) = (   0.0192308  -0.5218358   0.0078509), wk =   0.0004552
        k(  388) = (   0.0192308  -0.5218358   0.0549565), wk =   0.0004552
        k(  389) = (   0.0192308  -0.5218358   0.1020621), wk =   0.0004552
        k(  390) = (   0.0192308  -0.5218358   0.1491676), wk =   0.0004552
        k(  391) = (   0.0192308  -0.4774243   0.1805714), wk =   0.0004552
        k(  392) = (   0.0192308  -0.4774243   0.2276769), wk =   0.0004552
        k(  393) = (   0.0192308  -0.4774243   0.2747825), wk =   0.0004552
        k(  394) = (   0.0192308  -0.4774243   0.3218881), wk =   0.0004552
        k(  395) = (   0.0192308  -0.4774243   0.3689936), wk =   0.0004552
        k(  396) = (   0.0192308  -0.4774243   0.4160992), wk =   0.0004552
        k(  397) = (   0.0192308  -0.4774243   0.4632048), wk =   0.0004552
        k(  398) = (   0.0192308  -0.4774243   0.5103104), wk =   0.0004552
        k(  399) = (   0.0192308  -0.4774243   0.5574159), wk =   0.0004552
        k(  400) = (   0.0192308  -0.4774243   0.6045215), wk =   0.0004552
        k(  401) = (   0.0192308  -0.4774243   0.6516271), wk =   0.0004552
        k(  402) = (   0.0192308  -0.4774243   0.6987327), wk =   0.0004552
        k(  403) = (   0.0192308  -0.4774243   0.7458382), wk =   0.0004552
        k(  404) = (   0.0192308  -0.4774243  -0.4318011), wk =   0.0004552
        k(  405) = (   0.0192308  -0.4774243  -0.3846955), wk =   0.0004552
        k(  406) = (   0.0192308  -0.4774243  -0.3375899), wk =   0.0004552
        k(  407) = (   0.0192308  -0.4774243  -0.2904844), wk =   0.0004552
        k(  408) = (   0.0192308  -0.4774243  -0.2433788), wk =   0.0004552
        k(  409) = (   0.0192308  -0.4774243  -0.1962732), wk =   0.0004552
        k(  410) = (   0.0192308  -0.4774243  -0.1491676), wk =   0.0004552
        k(  411) = (   0.0192308  -0.4774243  -0.1020621), wk =   0.0004552
        k(  412) = (   0.0192308  -0.4774243  -0.0549565), wk =   0.0004552
        k(  413) = (   0.0192308  -0.4774243  -0.0078509), wk =   0.0004552
        k(  414) = (   0.0192308  -0.4774243   0.0392546), wk =   0.0004552
        k(  415) = (   0.0192308  -0.4774243   0.0863602), wk =   0.0004552
        k(  416) = (   0.0192308  -0.4774243   0.1334658), wk =   0.0004552
        k(  417) = (   0.0192308  -0.4330127   0.1648695), wk =   0.0004552
        k(  418) = (   0.0192308  -0.4330127   0.2119751), wk =   0.0004552
        k(  419) = (   0.0192308  -0.4330127   0.2590806), wk =   0.0004552
        k(  420) = (   0.0192308  -0.4330127   0.3061862), wk =   0.0004552
        k(  421) = (   0.0192308  -0.4330127   0.3532918), wk =   0.0004552
        k(  422) = (   0.0192308  -0.4330127   0.4003974), wk =   0.0004552
        k(  423) = (   0.0192308  -0.4330127   0.4475029), wk =   0.0004552
        k(  424) = (   0.0192308  -0.4330127   0.4946085), wk =   0.0004552
        k(  425) = (   0.0192308  -0.4330127   0.5417141), wk =   0.0004552
        k(  426) = (   0.0192308  -0.4330127   0.5888196), wk =   0.0004552
        k(  427) = (   0.0192308  -0.4330127   0.6359252), wk =   0.0004552
        k(  428) = (   0.0192308  -0.4330127   0.6830308), wk =   0.0004552
        k(  429) = (   0.0192308  -0.4330127   0.7301364), wk =   0.0004552
        k(  430) = (   0.0192308  -0.4330127  -0.4475029), wk =   0.0004552
        k(  431) = (   0.0192308  -0.4330127  -0.4003974), wk =   0.0004552
        k(  432) = (   0.0192308  -0.4330127  -0.3532918), wk =   0.0004552
        k(  433) = (   0.0192308  -0.4330127  -0.3061862), wk =   0.0004552
        k(  434) = (   0.0192308  -0.4330127  -0.2590806), wk =   0.0004552
        k(  435) = (   0.0192308  -0.4330127  -0.2119751), wk =   0.0004552
        k(  436) = (   0.0192308  -0.4330127  -0.1648695), wk =   0.0004552
        k(  437) = (   0.0192308  -0.4330127  -0.1177639), wk =   0.0004552
        k(  438) = (   0.0192308  -0.4330127  -0.0706584), wk =   0.0004552
        k(  439) = (   0.0192308  -0.4330127  -0.0235528), wk =   0.0004552
        k(  440) = (   0.0192308  -0.4330127   0.0235528), wk =   0.0004552
        k(  441) = (   0.0192308  -0.4330127   0.0706584), wk =   0.0004552
        k(  442) = (   0.0192308  -0.4330127   0.1177639), wk =   0.0004552
        k(  443) = (   0.0192308  -0.3886011   0.1491676), wk =   0.0004552
        k(  444) = (   0.0192308  -0.3886011   0.1962732), wk =   0.0004552
        k(  445) = (   0.0192308  -0.3886011   0.2433788), wk =   0.0004552
        k(  446) = (   0.0192308  -0.3886011   0.2904844), wk =   0.0004552
        k(  447) = (   0.0192308  -0.3886011   0.3375899), wk =   0.0004552
        k(  448) = (   0.0192308  -0.3886011   0.3846955), wk =   0.0004552
        k(  449) = (   0.0192308  -0.3886011   0.4318011), wk =   0.0004552
        k(  450) = (   0.0192308  -0.3886011   0.4789066), wk =   0.0004552
        k(  451) = (   0.0192308  -0.3886011   0.5260122), wk =   0.0004552
        k(  452) = (   0.0192308  -0.3886011   0.5731178), wk =   0.0004552
        k(  453) = (   0.0192308  -0.3886011   0.6202234), wk =   0.0004552
        k(  454) = (   0.0192308  -0.3886011   0.6673289), wk =   0.0004552
        k(  455) = (   0.0192308  -0.3886011   0.7144345), wk =   0.0004552
        k(  456) = (   0.0192308  -0.3886011  -0.4632048), wk =   0.0004552
        k(  457) = (   0.0192308  -0.3886011  -0.4160992), wk =   0.0004552
        k(  458) = (   0.0192308  -0.3886011  -0.3689936), wk =   0.0004552
        k(  459) = (   0.0192308  -0.3886011  -0.3218881), wk =   0.0004552
        k(  460) = (   0.0192308  -0.3886011  -0.2747825), wk =   0.0004552
        k(  461) = (   0.0192308  -0.3886011  -0.2276769), wk =   0.0004552
        k(  462) = (   0.0192308  -0.3886011  -0.1805714), wk =   0.0004552
        k(  463) = (   0.0192308  -0.3886011  -0.1334658), wk =   0.0004552
        k(  464) = (   0.0192308  -0.3886011  -0.0863602), wk =   0.0004552
        k(  465) = (   0.0192308  -0.3886011  -0.0392546), wk =   0.0004552
        k(  466) = (   0.0192308  -0.3886011   0.0078509), wk =   0.0004552
        k(  467) = (   0.0192308  -0.3886011   0.0549565), wk =   0.0004552
        k(  468) = (   0.0192308  -0.3886011   0.1020621), wk =   0.0004552
        k(  469) = (   0.0192308  -0.3441896   0.1334658), wk =   0.0004552
        k(  470) = (   0.0192308  -0.3441896   0.1805714), wk =   0.0004552
        k(  471) = (   0.0192308  -0.3441896   0.2276769), wk =   0.0004552
        k(  472) = (   0.0192308  -0.3441896   0.2747825), wk =   0.0004552
        k(  473) = (   0.0192308  -0.3441896   0.3218881), wk =   0.0004552
        k(  474) = (   0.0192308  -0.3441896   0.3689936), wk =   0.0004552
        k(  475) = (   0.0192308  -0.3441896   0.4160992), wk =   0.0004552
        k(  476) = (   0.0192308  -0.3441896   0.4632048), wk =   0.0004552
        k(  477) = (   0.0192308  -0.3441896   0.5103104), wk =   0.0004552
        k(  478) = (   0.0192308  -0.3441896   0.5574159), wk =   0.0004552
        k(  479) = (   0.0192308  -0.3441896   0.6045215), wk =   0.0004552
        k(  480) = (   0.0192308  -0.3441896   0.6516271), wk =   0.0004552
        k(  481) = (   0.0192308  -0.3441896   0.6987327), wk =   0.0004552
        k(  482) = (   0.0192308  -0.3441896  -0.4789066), wk =   0.0004552
        k(  483) = (   0.0192308  -0.3441896  -0.4318011), wk =   0.0004552
        k(  484) = (   0.0192308  -0.3441896  -0.3846955), wk =   0.0004552
        k(  485) = (   0.0192308  -0.3441896  -0.3375899), wk =   0.0004552
        k(  486) = (   0.0192308  -0.3441896  -0.2904844), wk =   0.0004552
        k(  487) = (   0.0192308  -0.3441896  -0.2433788), wk =   0.0004552
        k(  488) = (   0.0192308  -0.3441896  -0.1962732), wk =   0.0004552
        k(  489) = (   0.0192308  -0.3441896  -0.1491676), wk =   0.0004552
        k(  490) = (   0.0192308  -0.3441896  -0.1020621), wk =   0.0004552
        k(  491) = (   0.0192308  -0.3441896  -0.0549565), wk =   0.0004552
        k(  492) = (   0.0192308  -0.3441896  -0.0078509), wk =   0.0004552
        k(  493) = (   0.0192308  -0.3441896   0.0392546), wk =   0.0004552
        k(  494) = (   0.0192308  -0.3441896   0.0863602), wk =   0.0004552
        k(  495) = (   0.0192308  -0.2997780   0.1177639), wk =   0.0004552
        k(  496) = (   0.0192308  -0.2997780   0.1648695), wk =   0.0004552
        k(  497) = (   0.0192308  -0.2997780   0.2119751), wk =   0.0004552
        k(  498) = (   0.0192308  -0.2997780   0.2590806), wk =   0.0004552
        k(  499) = (   0.0192308  -0.2997780   0.3061862), wk =   0.0004552
        k(  500) = (   0.0192308  -0.2997780   0.3532918), wk =   0.0004552
        k(  501) = (   0.0192308  -0.2997780   0.4003974), wk =   0.0004552
        k(  502) = (   0.0192308  -0.2997780   0.4475029), wk =   0.0004552
        k(  503) = (   0.0192308  -0.2997780   0.4946085), wk =   0.0004552
        k(  504) = (   0.0192308  -0.2997780   0.5417141), wk =   0.0004552
        k(  505) = (   0.0192308  -0.2997780   0.5888196), wk =   0.0004552
        k(  506) = (   0.0192308  -0.2997780   0.6359252), wk =   0.0004552
        k(  507) = (   0.0192308  -0.2997780   0.6830308), wk =   0.0004552
        k(  508) = (   0.0192308  -0.2997780  -0.4946085), wk =   0.0004552
        k(  509) = (   0.0192308  -0.2997780  -0.4475029), wk =   0.0004552
        k(  510) = (   0.0192308  -0.2997780  -0.4003974), wk =   0.0004552
        k(  511) = (   0.0192308  -0.2997780  -0.3532918), wk =   0.0004552
        k(  512) = (   0.0192308  -0.2997780  -0.3061862), wk =   0.0004552
        k(  513) = (   0.0192308  -0.2997780  -0.2590806), wk =   0.0004552
        k(  514) = (   0.0192308  -0.2997780  -0.2119751), wk =   0.0004552
        k(  515) = (   0.0192308  -0.2997780  -0.1648695), wk =   0.0004552
        k(  516) = (   0.0192308  -0.2997780  -0.1177639), wk =   0.0004552
        k(  517) = (   0.0192308  -0.2997780  -0.0706584), wk =   0.0004552
        k(  518) = (   0.0192308  -0.2997780  -0.0235528), wk =   0.0004552
        k(  519) = (   0.0192308  -0.2997780   0.0235528), wk =   0.0004552
        k(  520) = (   0.0192308  -0.2997780   0.0706584), wk =   0.0004552
        k(  521) = (   0.0192308  -0.2553665   0.1020621), wk =   0.0004552
        k(  522) = (   0.0192308  -0.2553665   0.1491676), wk =   0.0004552
        k(  523) = (   0.0192308  -0.2553665   0.1962732), wk =   0.0004552
        k(  524) = (   0.0192308  -0.2553665   0.2433788), wk =   0.0004552
        k(  525) = (   0.0192308  -0.2553665   0.2904844), wk =   0.0004552
        k(  526) = (   0.0192308  -0.2553665   0.3375899), wk =   0.0004552
        k(  527) = (   0.0192308  -0.2553665   0.3846955), wk =   0.0004552
        k(  528) = (   0.0192308  -0.2553665   0.4318011), wk =   0.0004552
        k(  529) = (   0.0192308  -0.2553665   0.4789066), wk =   0.0004552
        k(  530) = (   0.0192308  -0.2553665   0.5260122), wk =   0.0004552
        k(  531) = (   0.0192308  -0.2553665   0.5731178), wk =   0.0004552
        k(  532) = (   0.0192308  -0.2553665   0.6202234), wk =   0.0004552
        k(  533) = (   0.0192308  -0.2553665   0.6673289), wk =   0.0004552
        k(  534) = (   0.0192308  -0.2553665  -0.5103104), wk =   0.0004552
        k(  535) = (   0.0192308  -0.2553665  -0.4632048), wk =   0.0004552
        k(  536) = (   0.0192308  -0.2553665  -0.4160992), wk =   0.0004552
        k(  537) = (   0.0192308  -0.2553665  -0.3689936), wk =   0.0004552
        k(  538) = (   0.0192308  -0.2553665  -0.3218881), wk =   0.0004552
        k(  539) = (   0.0192308  -0.2553665  -0.2747825), wk =   0.0004552
        k(  540) = (   0.0192308  -0.2553665  -0.2276769), wk =   0.0004552
        k(  541) = (   0.0192308  -0.2553665  -0.1805714), wk =   0.0004552
        k(  542) = (   0.0192308  -0.2553665  -0.1334658), wk =   0.0004552
        k(  543) = (   0.0192308  -0.2553665  -0.0863602), wk =   0.0004552
        k(  544) = (   0.0192308  -0.2553665  -0.0392546), wk =   0.0004552
        k(  545) = (   0.0192308  -0.2553665   0.0078509), wk =   0.0004552
        k(  546) = (   0.0192308  -0.2553665   0.0549565), wk =   0.0004552
        k(  547) = (   0.0192308  -0.2109549   0.0863602), wk =   0.0004552
        k(  548) = (   0.0192308  -0.2109549   0.1334658), wk =   0.0004552
        k(  549) = (   0.0192308  -0.2109549   0.1805714), wk =   0.0004552
        k(  550) = (   0.0192308  -0.2109549   0.2276769), wk =   0.0004552
        k(  551) = (   0.0192308  -0.2109549   0.2747825), wk =   0.0004552
        k(  552) = (   0.0192308  -0.2109549   0.3218881), wk =   0.0004552
        k(  553) = (   0.0192308  -0.2109549   0.3689936), wk =   0.0004552
        k(  554) = (   0.0192308  -0.2109549   0.4160992), wk =   0.0004552
        k(  555) = (   0.0192308  -0.2109549   0.4632048), wk =   0.0004552
        k(  556) = (   0.0192308  -0.2109549   0.5103104), wk =   0.0004552
        k(  557) = (   0.0192308  -0.2109549   0.5574159), wk =   0.0004552
        k(  558) = (   0.0192308  -0.2109549   0.6045215), wk =   0.0004552
        k(  559) = (   0.0192308  -0.2109549   0.6516271), wk =   0.0004552
        k(  560) = (   0.0192308  -0.2109549  -0.5260122), wk =   0.0004552
        k(  561) = (   0.0192308  -0.2109549  -0.4789066), wk =   0.0004552
        k(  562) = (   0.0192308  -0.2109549  -0.4318011), wk =   0.0004552
        k(  563) = (   0.0192308  -0.2109549  -0.3846955), wk =   0.0004552
        k(  564) = (   0.0192308  -0.2109549  -0.3375899), wk =   0.0004552
        k(  565) = (   0.0192308  -0.2109549  -0.2904844), wk =   0.0004552
        k(  566) = (   0.0192308  -0.2109549  -0.2433788), wk =   0.0004552
        k(  567) = (   0.0192308  -0.2109549  -0.1962732), wk =   0.0004552
        k(  568) = (   0.0192308  -0.2109549  -0.1491676), wk =   0.0004552
        k(  569) = (   0.0192308  -0.2109549  -0.1020621), wk =   0.0004552
        k(  570) = (   0.0192308  -0.2109549  -0.0549565), wk =   0.0004552
        k(  571) = (   0.0192308  -0.2109549  -0.0078509), wk =   0.0004552
        k(  572) = (   0.0192308  -0.2109549   0.0392546), wk =   0.0004552
        k(  573) = (   0.0192308  -0.1665433   0.0706584), wk =   0.0004552
        k(  574) = (   0.0192308  -0.1665433   0.1177639), wk =   0.0004552
        k(  575) = (   0.0192308  -0.1665433   0.1648695), wk =   0.0004552
        k(  576) = (   0.0192308  -0.1665433   0.2119751), wk =   0.0004552
        k(  577) = (   0.0192308  -0.1665433   0.2590806), wk =   0.0004552
        k(  578) = (   0.0192308  -0.1665433   0.3061862), wk =   0.0004552
        k(  579) = (   0.0192308  -0.1665433   0.3532918), wk =   0.0004552
        k(  580) = (   0.0192308  -0.1665433   0.4003974), wk =   0.0004552
        k(  581) = (   0.0192308  -0.1665433   0.4475029), wk =   0.0004552
        k(  582) = (   0.0192308  -0.1665433   0.4946085), wk =   0.0004552
        k(  583) = (   0.0192308  -0.1665433   0.5417141), wk =   0.0004552
        k(  584) = (   0.0192308  -0.1665433   0.5888196), wk =   0.0004552
        k(  585) = (   0.0192308  -0.1665433   0.6359252), wk =   0.0004552
        k(  586) = (   0.0192308  -0.1665433  -0.5417141), wk =   0.0004552
        k(  587) = (   0.0192308  -0.1665433  -0.4946085), wk =   0.0004552
        k(  588) = (   0.0192308  -0.1665433  -0.4475029), wk =   0.0004552
        k(  589) = (   0.0192308  -0.1665433  -0.4003974), wk =   0.0004552
        k(  590) = (   0.0192308  -0.1665433  -0.3532918), wk =   0.0004552
        k(  591) = (   0.0192308  -0.1665433  -0.3061862), wk =   0.0004552
        k(  592) = (   0.0192308  -0.1665433  -0.2590806), wk =   0.0004552
        k(  593) = (   0.0192308  -0.1665433  -0.2119751), wk =   0.0004552
        k(  594) = (   0.0192308  -0.1665433  -0.1648695), wk =   0.0004552
        k(  595) = (   0.0192308  -0.1665433  -0.1177639), wk =   0.0004552
        k(  596) = (   0.0192308  -0.1665433  -0.0706584), wk =   0.0004552
        k(  597) = (   0.0192308  -0.1665433  -0.0235528), wk =   0.0004552
        k(  598) = (   0.0192308  -0.1665433   0.0235528), wk =   0.0004552
        k(  599) = (   0.0192308  -0.1221318   0.0549565), wk =   0.0004552
        k(  600) = (   0.0192308  -0.1221318   0.1020621), wk =   0.0004552
        k(  601) = (   0.0192308  -0.1221318   0.1491676), wk =   0.0004552
        k(  602) = (   0.0192308  -0.1221318   0.1962732), wk =   0.0004552
        k(  603) = (   0.0192308  -0.1221318   0.2433788), wk =   0.0004552
        k(  604) = (   0.0192308  -0.1221318   0.2904844), wk =   0.0004552
        k(  605) = (   0.0192308  -0.1221318   0.3375899), wk =   0.0004552
        k(  606) = (   0.0192308  -0.1221318   0.3846955), wk =   0.0004552
        k(  607) = (   0.0192308  -0.1221318   0.4318011), wk =   0.0004552
        k(  608) = (   0.0192308  -0.1221318   0.4789066), wk =   0.0004552
        k(  609) = (   0.0192308  -0.1221318   0.5260122), wk =   0.0004552
        k(  610) = (   0.0192308  -0.1221318   0.5731178), wk =   0.0004552
        k(  611) = (   0.0192308  -0.1221318   0.6202234), wk =   0.0004552
        k(  612) = (   0.0192308  -0.1221318  -0.5574159), wk =   0.0004552
        k(  613) = (   0.0192308  -0.1221318  -0.5103104), wk =   0.0004552
        k(  614) = (   0.0192308  -0.1221318  -0.4632048), wk =   0.0004552
        k(  615) = (   0.0192308  -0.1221318  -0.4160992), wk =   0.0004552
        k(  616) = (   0.0192308  -0.1221318  -0.3689936), wk =   0.0004552
        k(  617) = (   0.0192308  -0.1221318  -0.3218881), wk =   0.0004552
        k(  618) = (   0.0192308  -0.1221318  -0.2747825), wk =   0.0004552
        k(  619) = (   0.0192308  -0.1221318  -0.2276769), wk =   0.0004552
        k(  620) = (   0.0192308  -0.1221318  -0.1805714), wk =   0.0004552
        k(  621) = (   0.0192308  -0.1221318  -0.1334658), wk =   0.0004552
        k(  622) = (   0.0192308  -0.1221318  -0.0863602), wk =   0.0004552
        k(  623) = (   0.0192308  -0.1221318  -0.0392546), wk =   0.0004552
        k(  624) = (   0.0192308  -0.1221318   0.0078509), wk =   0.0004552
        k(  625) = (   0.0192308  -0.0777202   0.0392546), wk =   0.0004552
        k(  626) = (   0.0192308  -0.0777202   0.0863602), wk =   0.0004552
        k(  627) = (   0.0192308  -0.0777202   0.1334658), wk =   0.0004552
        k(  628) = (   0.0192308  -0.0777202   0.1805714), wk =   0.0004552
        k(  629) = (   0.0192308  -0.0777202   0.2276769), wk =   0.0004552
        k(  630) = (   0.0192308  -0.0777202   0.2747825), wk =   0.0004552
        k(  631) = (   0.0192308  -0.0777202   0.3218881), wk =   0.0004552
        k(  632) = (   0.0192308  -0.0777202   0.3689936), wk =   0.0004552
        k(  633) = (   0.0192308  -0.0777202   0.4160992), wk =   0.0004552
        k(  634) = (   0.0192308  -0.0777202   0.4632048), wk =   0.0004552
        k(  635) = (   0.0192308  -0.0777202   0.5103104), wk =   0.0004552
        k(  636) = (   0.0192308  -0.0777202   0.5574159), wk =   0.0004552
        k(  637) = (   0.0192308  -0.0777202   0.6045215), wk =   0.0004552
        k(  638) = (   0.0192308  -0.0777202  -0.5731178), wk =   0.0004552
        k(  639) = (   0.0192308  -0.0777202  -0.5260122), wk =   0.0004552
        k(  640) = (   0.0192308  -0.0777202  -0.4789066), wk =   0.0004552
        k(  641) = (   0.0192308  -0.0777202  -0.4318011), wk =   0.0004552
        k(  642) = (   0.0192308  -0.0777202  -0.3846955), wk =   0.0004552
        k(  643) = (   0.0192308  -0.0777202  -0.3375899), wk =   0.0004552
        k(  644) = (   0.0192308  -0.0777202  -0.2904844), wk =   0.0004552
        k(  645) = (   0.0192308  -0.0777202  -0.2433788), wk =   0.0004552
        k(  646) = (   0.0192308  -0.0777202  -0.1962732), wk =   0.0004552
        k(  647) = (   0.0192308  -0.0777202  -0.1491676), wk =   0.0004552
        k(  648) = (   0.0192308  -0.0777202  -0.1020621), wk =   0.0004552
        k(  649) = (   0.0192308  -0.0777202  -0.0549565), wk =   0.0004552
        k(  650) = (   0.0192308  -0.0777202  -0.0078509), wk =   0.0004552
        k(  651) = (   0.0192308  -0.0333087   0.0235528), wk =   0.0004552
        k(  652) = (   0.0192308  -0.0333087   0.0706584), wk =   0.0004552
        k(  653) = (   0.0192308  -0.0333087   0.1177639), wk =   0.0004552
        k(  654) = (   0.0192308  -0.0333087   0.1648695), wk =   0.0004552
        k(  655) = (   0.0192308  -0.0333087   0.2119751), wk =   0.0004552
        k(  656) = (   0.0192308  -0.0333087   0.2590806), wk =   0.0004552
        k(  657) = (   0.0192308  -0.0333087   0.3061862), wk =   0.0004552
        k(  658) = (   0.0192308  -0.0333087   0.3532918), wk =   0.0004552
        k(  659) = (   0.0192308  -0.0333087   0.4003974), wk =   0.0004552
        k(  660) = (   0.0192308  -0.0333087   0.4475029), wk =   0.0004552
        k(  661) = (   0.0192308  -0.0333087   0.4946085), wk =   0.0004552
        k(  662) = (   0.0192308  -0.0333087   0.5417141), wk =   0.0004552
        k(  663) = (   0.0192308  -0.0333087   0.5888196), wk =   0.0004552
        k(  664) = (   0.0576923   0.0333087  -0.0235528), wk =   0.0002276
        k(  665) = (   0.0576923   0.0333087   0.0235528), wk =   0.0002276
        k(  666) = (   0.0576923   0.0333087   0.0706584), wk =   0.0002276
        k(  667) = (   0.0576923   0.0333087   0.1177639), wk =   0.0002276
        k(  668) = (   0.0576923   0.0333087   0.1648695), wk =   0.0002276
        k(  669) = (   0.0576923   0.0333087   0.2119751), wk =   0.0002276
        k(  670) = (   0.0576923   0.0333087   0.2590806), wk =   0.0002276
        k(  671) = (   0.0576923   0.0333087   0.3061862), wk =   0.0002276
        k(  672) = (   0.0576923   0.0333087   0.3532918), wk =   0.0002276
        k(  673) = (   0.0576923   0.0333087   0.4003974), wk =   0.0002276
        k(  674) = (   0.0576923   0.0333087   0.4475029), wk =   0.0002276
        k(  675) = (   0.0576923   0.0333087   0.4946085), wk =   0.0002276
        k(  676) = (   0.0576923   0.0333087   0.5417141), wk =   0.0002276
        k(  677) = (   0.0576923   0.0333087  -0.6359252), wk =   0.0002276
        k(  678) = (   0.0576923   0.0333087  -0.5888196), wk =   0.0002276
        k(  679) = (   0.0576923   0.0333087  -0.5417141), wk =   0.0002276
        k(  680) = (   0.0576923   0.0333087  -0.4946085), wk =   0.0002276
        k(  681) = (   0.0576923   0.0333087  -0.4475029), wk =   0.0002276
        k(  682) = (   0.0576923   0.0333087  -0.4003974), wk =   0.0002276
        k(  683) = (   0.0576923   0.0333087  -0.3532918), wk =   0.0002276
        k(  684) = (   0.0576923   0.0333087  -0.3061862), wk =   0.0002276
        k(  685) = (   0.0576923   0.0333087  -0.2590806), wk =   0.0002276
        k(  686) = (   0.0576923   0.0333087  -0.2119751), wk =   0.0002276
        k(  687) = (   0.0576923   0.0333087  -0.1648695), wk =   0.0002276
        k(  688) = (   0.0576923   0.0333087  -0.1177639), wk =   0.0002276
        k(  689) = (   0.0576923   0.0333087  -0.0706584), wk =   0.0002276
        k(  690) = (   0.0576923   0.0777202  -0.0392546), wk =   0.0004552
        k(  691) = (   0.0576923   0.0777202   0.0078509), wk =   0.0004552
        k(  692) = (   0.0576923   0.0777202   0.0549565), wk =   0.0004552
        k(  693) = (   0.0576923   0.0777202   0.1020621), wk =   0.0004552
        k(  694) = (   0.0576923   0.0777202   0.1491676), wk =   0.0004552
        k(  695) = (   0.0576923   0.0777202   0.1962732), wk =   0.0004552
        k(  696) = (   0.0576923   0.0777202   0.2433788), wk =   0.0004552
        k(  697) = (   0.0576923   0.0777202   0.2904844), wk =   0.0004552
        k(  698) = (   0.0576923   0.0777202   0.3375899), wk =   0.0004552
        k(  699) = (   0.0576923   0.0777202   0.3846955), wk =   0.0004552
        k(  700) = (   0.0576923   0.0777202   0.4318011), wk =   0.0004552
        k(  701) = (   0.0576923   0.0777202   0.4789066), wk =   0.0004552
        k(  702) = (   0.0576923   0.0777202   0.5260122), wk =   0.0004552
        k(  703) = (   0.0576923   0.0777202  -0.6516271), wk =   0.0004552
        k(  704) = (   0.0576923   0.0777202  -0.6045215), wk =   0.0004552
        k(  705) = (   0.0576923   0.0777202  -0.5574159), wk =   0.0004552
        k(  706) = (   0.0576923   0.0777202  -0.5103104), wk =   0.0004552
        k(  707) = (   0.0576923   0.0777202  -0.4632048), wk =   0.0004552
        k(  708) = (   0.0576923   0.0777202  -0.4160992), wk =   0.0004552
        k(  709) = (   0.0576923   0.0777202  -0.3689936), wk =   0.0004552
        k(  710) = (   0.0576923   0.0777202  -0.3218881), wk =   0.0004552
        k(  711) = (   0.0576923   0.0777202  -0.2747825), wk =   0.0004552
        k(  712) = (   0.0576923   0.0777202  -0.2276769), wk =   0.0004552
        k(  713) = (   0.0576923   0.0777202  -0.1805714), wk =   0.0004552
        k(  714) = (   0.0576923   0.0777202  -0.1334658), wk =   0.0004552
        k(  715) = (   0.0576923   0.0777202  -0.0863602), wk =   0.0004552
        k(  716) = (   0.0576923   0.1221318  -0.0549565), wk =   0.0004552
        k(  717) = (   0.0576923   0.1221318  -0.0078509), wk =   0.0004552
        k(  718) = (   0.0576923   0.1221318   0.0392546), wk =   0.0004552
        k(  719) = (   0.0576923   0.1221318   0.0863602), wk =   0.0004552
        k(  720) = (   0.0576923   0.1221318   0.1334658), wk =   0.0004552
        k(  721) = (   0.0576923   0.1221318   0.1805714), wk =   0.0004552
        k(  722) = (   0.0576923   0.1221318   0.2276769), wk =   0.0004552
        k(  723) = (   0.0576923   0.1221318   0.2747825), wk =   0.0004552
        k(  724) = (   0.0576923   0.1221318   0.3218881), wk =   0.0004552
        k(  725) = (   0.0576923   0.1221318   0.3689936), wk =   0.0004552
        k(  726) = (   0.0576923   0.1221318   0.4160992), wk =   0.0004552
        k(  727) = (   0.0576923   0.1221318   0.4632048), wk =   0.0004552
        k(  728) = (   0.0576923   0.1221318   0.5103104), wk =   0.0004552
        k(  729) = (   0.0576923   0.1221318  -0.6673289), wk =   0.0004552
        k(  730) = (   0.0576923   0.1221318  -0.6202234), wk =   0.0004552
        k(  731) = (   0.0576923   0.1221318  -0.5731178), wk =   0.0004552
        k(  732) = (   0.0576923   0.1221318  -0.5260122), wk =   0.0004552
        k(  733) = (   0.0576923   0.1221318  -0.4789066), wk =   0.0004552
        k(  734) = (   0.0576923   0.1221318  -0.4318011), wk =   0.0004552
        k(  735) = (   0.0576923   0.1221318  -0.3846955), wk =   0.0004552
        k(  736) = (   0.0576923   0.1221318  -0.3375899), wk =   0.0004552
        k(  737) = (   0.0576923   0.1221318  -0.2904844), wk =   0.0004552
        k(  738) = (   0.0576923   0.1221318  -0.2433788), wk =   0.0004552
        k(  739) = (   0.0576923   0.1221318  -0.1962732), wk =   0.0004552
        k(  740) = (   0.0576923   0.1221318  -0.1491676), wk =   0.0004552
        k(  741) = (   0.0576923   0.1221318  -0.1020621), wk =   0.0004552
        k(  742) = (   0.0576923   0.1665433  -0.0706584), wk =   0.0004552
        k(  743) = (   0.0576923   0.1665433  -0.0235528), wk =   0.0004552
        k(  744) = (   0.0576923   0.1665433   0.0235528), wk =   0.0004552
        k(  745) = (   0.0576923   0.1665433   0.0706584), wk =   0.0004552
        k(  746) = (   0.0576923   0.1665433   0.1177639), wk =   0.0004552
        k(  747) = (   0.0576923   0.1665433   0.1648695), wk =   0.0004552
        k(  748) = (   0.0576923   0.1665433   0.2119751), wk =   0.0004552
        k(  749) = (   0.0576923   0.1665433   0.2590806), wk =   0.0004552
        k(  750) = (   0.0576923   0.1665433   0.3061862), wk =   0.0004552
        k(  751) = (   0.0576923   0.1665433   0.3532918), wk =   0.0004552
        k(  752) = (   0.0576923   0.1665433   0.4003974), wk =   0.0004552
        k(  753) = (   0.0576923   0.1665433   0.4475029), wk =   0.0004552
        k(  754) = (   0.0576923   0.1665433   0.4946085), wk =   0.0004552
        k(  755) = (   0.0576923   0.1665433  -0.6830308), wk =   0.0004552
        k(  756) = (   0.0576923   0.1665433  -0.6359252), wk =   0.0004552
        k(  757) = (   0.0576923   0.1665433  -0.5888196), wk =   0.0004552
        k(  758) = (   0.0576923   0.1665433  -0.5417141), wk =   0.0004552
        k(  759) = (   0.0576923   0.1665433  -0.4946085), wk =   0.0004552
        k(  760) = (   0.0576923   0.1665433  -0.4475029), wk =   0.0004552
        k(  761) = (   0.0576923   0.1665433  -0.4003974), wk =   0.0004552
        k(  762) = (   0.0576923   0.1665433  -0.3532918), wk =   0.0004552
        k(  763) = (   0.0576923   0.1665433  -0.3061862), wk =   0.0004552
        k(  764) = (   0.0576923   0.1665433  -0.2590806), wk =   0.0004552
        k(  765) = (   0.0576923   0.1665433  -0.2119751), wk =   0.0004552
        k(  766) = (   0.0576923   0.1665433  -0.1648695), wk =   0.0004552
        k(  767) = (   0.0576923   0.1665433  -0.1177639), wk =   0.0004552
        k(  768) = (   0.0576923   0.2109549  -0.0863602), wk =   0.0004552
        k(  769) = (   0.0576923   0.2109549  -0.0392546), wk =   0.0004552
        k(  770) = (   0.0576923   0.2109549   0.0078509), wk =   0.0004552
        k(  771) = (   0.0576923   0.2109549   0.0549565), wk =   0.0004552
        k(  772) = (   0.0576923   0.2109549   0.1020621), wk =   0.0004552
        k(  773) = (   0.0576923   0.2109549   0.1491676), wk =   0.0004552
        k(  774) = (   0.0576923   0.2109549   0.1962732), wk =   0.0004552
        k(  775) = (   0.0576923   0.2109549   0.2433788), wk =   0.0004552
        k(  776) = (   0.0576923   0.2109549   0.2904844), wk =   0.0004552
        k(  777) = (   0.0576923   0.2109549   0.3375899), wk =   0.0004552
        k(  778) = (   0.0576923   0.2109549   0.3846955), wk =   0.0004552
        k(  779) = (   0.0576923   0.2109549   0.4318011), wk =   0.0004552
        k(  780) = (   0.0576923   0.2109549   0.4789066), wk =   0.0004552
        k(  781) = (   0.0576923   0.2109549  -0.6987327), wk =   0.0004552
        k(  782) = (   0.0576923   0.2109549  -0.6516271), wk =   0.0004552
        k(  783) = (   0.0576923   0.2109549  -0.6045215), wk =   0.0004552
        k(  784) = (   0.0576923   0.2109549  -0.5574159), wk =   0.0004552
        k(  785) = (   0.0576923   0.2109549  -0.5103104), wk =   0.0004552
        k(  786) = (   0.0576923   0.2109549  -0.4632048), wk =   0.0004552
        k(  787) = (   0.0576923   0.2109549  -0.4160992), wk =   0.0004552
        k(  788) = (   0.0576923   0.2109549  -0.3689936), wk =   0.0004552
        k(  789) = (   0.0576923   0.2109549  -0.3218881), wk =   0.0004552
        k(  790) = (   0.0576923   0.2109549  -0.2747825), wk =   0.0004552
        k(  791) = (   0.0576923   0.2109549  -0.2276769), wk =   0.0004552
        k(  792) = (   0.0576923   0.2109549  -0.1805714), wk =   0.0004552
        k(  793) = (   0.0576923   0.2109549  -0.1334658), wk =   0.0004552
        k(  794) = (   0.0576923   0.2553665  -0.1020621), wk =   0.0004552
        k(  795) = (   0.0576923   0.2553665  -0.0549565), wk =   0.0004552
        k(  796) = (   0.0576923   0.2553665  -0.0078509), wk =   0.0004552
        k(  797) = (   0.0576923   0.2553665   0.0392546), wk =   0.0004552
        k(  798) = (   0.0576923   0.2553665   0.0863602), wk =   0.0004552
        k(  799) = (   0.0576923   0.2553665   0.1334658), wk =   0.0004552
        k(  800) = (   0.0576923   0.2553665   0.1805714), wk =   0.0004552
        k(  801) = (   0.0576923   0.2553665   0.2276769), wk =   0.0004552
        k(  802) = (   0.0576923   0.2553665   0.2747825), wk =   0.0004552
        k(  803) = (   0.0576923   0.2553665   0.3218881), wk =   0.0004552
        k(  804) = (   0.0576923   0.2553665   0.3689936), wk =   0.0004552
        k(  805) = (   0.0576923   0.2553665   0.4160992), wk =   0.0004552
        k(  806) = (   0.0576923   0.2553665   0.4632048), wk =   0.0004552
        k(  807) = (   0.0576923   0.2553665  -0.7144345), wk =   0.0004552
        k(  808) = (   0.0576923   0.2553665  -0.6673289), wk =   0.0004552
        k(  809) = (   0.0576923   0.2553665  -0.6202234), wk =   0.0004552
        k(  810) = (   0.0576923   0.2553665  -0.5731178), wk =   0.0004552
        k(  811) = (   0.0576923   0.2553665  -0.5260122), wk =   0.0004552
        k(  812) = (   0.0576923   0.2553665  -0.4789066), wk =   0.0004552
        k(  813) = (   0.0576923   0.2553665  -0.4318011), wk =   0.0004552
        k(  814) = (   0.0576923   0.2553665  -0.3846955), wk =   0.0004552
        k(  815) = (   0.0576923   0.2553665  -0.3375899), wk =   0.0004552
        k(  816) = (   0.0576923   0.2553665  -0.2904844), wk =   0.0004552
        k(  817) = (   0.0576923   0.2553665  -0.2433788), wk =   0.0004552
        k(  818) = (   0.0576923   0.2553665  -0.1962732), wk =   0.0004552
        k(  819) = (   0.0576923   0.2553665  -0.1491676), wk =   0.0004552
        k(  820) = (   0.0576923   0.2997780  -0.1177639), wk =   0.0004552
        k(  821) = (   0.0576923   0.2997780  -0.0706584), wk =   0.0004552
        k(  822) = (   0.0576923   0.2997780  -0.0235528), wk =   0.0004552
        k(  823) = (   0.0576923   0.2997780   0.0235528), wk =   0.0004552
        k(  824) = (   0.0576923   0.2997780   0.0706584), wk =   0.0004552
        k(  825) = (   0.0576923   0.2997780   0.1177639), wk =   0.0004552
        k(  826) = (   0.0576923   0.2997780   0.1648695), wk =   0.0004552
        k(  827) = (   0.0576923   0.2997780   0.2119751), wk =   0.0004552
        k(  828) = (   0.0576923   0.2997780   0.2590806), wk =   0.0004552
        k(  829) = (   0.0576923   0.2997780   0.3061862), wk =   0.0004552
        k(  830) = (   0.0576923   0.2997780   0.3532918), wk =   0.0004552
        k(  831) = (   0.0576923   0.2997780   0.4003974), wk =   0.0004552
        k(  832) = (   0.0576923   0.2997780   0.4475029), wk =   0.0004552
        k(  833) = (   0.0576923   0.2997780  -0.7301364), wk =   0.0004552
        k(  834) = (   0.0576923   0.2997780  -0.6830308), wk =   0.0004552
        k(  835) = (   0.0576923   0.2997780  -0.6359252), wk =   0.0004552
        k(  836) = (   0.0576923   0.2997780  -0.5888196), wk =   0.0004552
        k(  837) = (   0.0576923   0.2997780  -0.5417141), wk =   0.0004552
        k(  838) = (   0.0576923   0.2997780  -0.4946085), wk =   0.0004552
        k(  839) = (   0.0576923   0.2997780  -0.4475029), wk =   0.0004552
        k(  840) = (   0.0576923   0.2997780  -0.4003974), wk =   0.0004552
        k(  841) = (   0.0576923   0.2997780  -0.3532918), wk =   0.0004552
        k(  842) = (   0.0576923   0.2997780  -0.3061862), wk =   0.0004552
        k(  843) = (   0.0576923   0.2997780  -0.2590806), wk =   0.0004552
        k(  844) = (   0.0576923   0.2997780  -0.2119751), wk =   0.0004552
        k(  845) = (   0.0576923   0.2997780  -0.1648695), wk =   0.0004552
        k(  846) = (   0.0576923   0.3441896  -0.1334658), wk =   0.0004552
        k(  847) = (   0.0576923   0.3441896  -0.0863602), wk =   0.0004552
        k(  848) = (   0.0576923   0.3441896  -0.0392546), wk =   0.0004552
        k(  849) = (   0.0576923   0.3441896   0.0078509), wk =   0.0004552
        k(  850) = (   0.0576923   0.3441896   0.0549565), wk =   0.0004552
        k(  851) = (   0.0576923   0.3441896   0.1020621), wk =   0.0004552
        k(  852) = (   0.0576923   0.3441896   0.1491676), wk =   0.0004552
        k(  853) = (   0.0576923   0.3441896   0.1962732), wk =   0.0004552
        k(  854) = (   0.0576923   0.3441896   0.2433788), wk =   0.0004552
        k(  855) = (   0.0576923   0.3441896   0.2904844), wk =   0.0004552
        k(  856) = (   0.0576923   0.3441896   0.3375899), wk =   0.0004552
        k(  857) = (   0.0576923   0.3441896   0.3846955), wk =   0.0004552
        k(  858) = (   0.0576923   0.3441896   0.4318011), wk =   0.0004552
        k(  859) = (   0.0576923   0.3441896  -0.7458382), wk =   0.0004552
        k(  860) = (   0.0576923   0.3441896  -0.6987327), wk =   0.0004552
        k(  861) = (   0.0576923   0.3441896  -0.6516271), wk =   0.0004552
        k(  862) = (   0.0576923   0.3441896  -0.6045215), wk =   0.0004552
        k(  863) = (   0.0576923   0.3441896  -0.5574159), wk =   0.0004552
        k(  864) = (   0.0576923   0.3441896  -0.5103104), wk =   0.0004552
        k(  865) = (   0.0576923   0.3441896  -0.4632048), wk =   0.0004552
        k(  866) = (   0.0576923   0.3441896  -0.4160992), wk =   0.0004552
        k(  867) = (   0.0576923   0.3441896  -0.3689936), wk =   0.0004552
        k(  868) = (   0.0576923   0.3441896  -0.3218881), wk =   0.0004552
        k(  869) = (   0.0576923   0.3441896  -0.2747825), wk =   0.0004552
        k(  870) = (   0.0576923   0.3441896  -0.2276769), wk =   0.0004552
        k(  871) = (   0.0576923   0.3441896  -0.1805714), wk =   0.0004552
        k(  872) = (   0.0576923   0.3886011  -0.1491676), wk =   0.0004552
        k(  873) = (   0.0576923   0.3886011  -0.1020621), wk =   0.0004552
        k(  874) = (   0.0576923   0.3886011  -0.0549565), wk =   0.0004552
        k(  875) = (   0.0576923   0.3886011  -0.0078509), wk =   0.0004552
        k(  876) = (   0.0576923   0.3886011   0.0392546), wk =   0.0004552
        k(  877) = (   0.0576923   0.3886011   0.0863602), wk =   0.0004552
        k(  878) = (   0.0576923   0.3886011   0.1334658), wk =   0.0004552
        k(  879) = (   0.0576923   0.3886011   0.1805714), wk =   0.0004552
        k(  880) = (   0.0576923   0.3886011   0.2276769), wk =   0.0004552
        k(  881) = (   0.0576923   0.3886011   0.2747825), wk =   0.0004552
        k(  882) = (   0.0576923   0.3886011   0.3218881), wk =   0.0004552
        k(  883) = (   0.0576923   0.3886011   0.3689936), wk =   0.0004552
        k(  884) = (   0.0576923   0.3886011   0.4160992), wk =   0.0004552
        k(  885) = (   0.0576923   0.3886011  -0.7615401), wk =   0.0004552
        k(  886) = (   0.0576923   0.3886011  -0.7144345), wk =   0.0004552
        k(  887) = (   0.0576923   0.3886011  -0.6673289), wk =   0.0004552
        k(  888) = (   0.0576923   0.3886011  -0.6202234), wk =   0.0004552
        k(  889) = (   0.0576923   0.3886011  -0.5731178), wk =   0.0004552
        k(  890) = (   0.0576923   0.3886011  -0.5260122), wk =   0.0004552
        k(  891) = (   0.0576923   0.3886011  -0.4789066), wk =   0.0004552
        k(  892) = (   0.0576923   0.3886011  -0.4318011), wk =   0.0004552
        k(  893) = (   0.0576923   0.3886011  -0.3846955), wk =   0.0004552
        k(  894) = (   0.0576923   0.3886011  -0.3375899), wk =   0.0004552
        k(  895) = (   0.0576923   0.3886011  -0.2904844), wk =   0.0004552
        k(  896) = (   0.0576923   0.3886011  -0.2433788), wk =   0.0004552
        k(  897) = (   0.0576923   0.3886011  -0.1962732), wk =   0.0004552
        k(  898) = (   0.0576923   0.4330127  -0.1648695), wk =   0.0004552
        k(  899) = (   0.0576923   0.4330127  -0.1177639), wk =   0.0004552
        k(  900) = (   0.0576923   0.4330127  -0.0706584), wk =   0.0004552
        k(  901) = (   0.0576923   0.4330127  -0.0235528), wk =   0.0004552
        k(  902) = (   0.0576923   0.4330127   0.0235528), wk =   0.0004552
        k(  903) = (   0.0576923   0.4330127   0.0706584), wk =   0.0004552
        k(  904) = (   0.0576923   0.4330127   0.1177639), wk =   0.0004552
        k(  905) = (   0.0576923   0.4330127   0.1648695), wk =   0.0004552
        k(  906) = (   0.0576923   0.4330127   0.2119751), wk =   0.0004552
        k(  907) = (   0.0576923   0.4330127   0.2590806), wk =   0.0004552
        k(  908) = (   0.0576923   0.4330127   0.3061862), wk =   0.0004552
        k(  909) = (   0.0576923   0.4330127   0.3532918), wk =   0.0004552
        k(  910) = (   0.0576923   0.4330127   0.4003974), wk =   0.0004552
        k(  911) = (   0.0576923   0.4330127  -0.7772419), wk =   0.0004552
        k(  912) = (   0.0576923   0.4330127  -0.7301364), wk =   0.0004552
        k(  913) = (   0.0576923   0.4330127  -0.6830308), wk =   0.0004552
        k(  914) = (   0.0576923   0.4330127  -0.6359252), wk =   0.0004552
        k(  915) = (   0.0576923   0.4330127  -0.5888196), wk =   0.0004552
        k(  916) = (   0.0576923   0.4330127  -0.5417141), wk =   0.0004552
        k(  917) = (   0.0576923   0.4330127  -0.4946085), wk =   0.0004552
        k(  918) = (   0.0576923   0.4330127  -0.4475029), wk =   0.0004552
        k(  919) = (   0.0576923   0.4330127  -0.4003974), wk =   0.0004552
        k(  920) = (   0.0576923   0.4330127  -0.3532918), wk =   0.0004552
        k(  921) = (   0.0576923   0.4330127  -0.3061862), wk =   0.0004552
        k(  922) = (   0.0576923   0.4330127  -0.2590806), wk =   0.0004552
        k(  923) = (   0.0576923   0.4330127  -0.2119751), wk =   0.0004552
        k(  924) = (   0.0576923   0.4774243  -0.1805714), wk =   0.0004552
[...]
     0.0000   0.0000   0.0000   0.0000   0.0000   0.0000   0.0000   0.0000
     0.0000   0.0000   0.0000   0.0000   0.0000   0.0000

          k = 0.4808 0.2776-0.9814 (  1559 PWs)   bands (ev):

   -17.6802 -17.6802 -17.6733 -17.6721 -17.6719  -4.0425  -1.7434   5.7442
     5.9139   6.8393   7.5824   7.7812   8.0219  16.1636  16.3791  17.2306
    17.6511  18.2653  18.3275  23.4387  23.8299  24.5999  24.6965  25.9203
    26.1029  26.8891  27.2651  32.5668  32.7315  32.9237

     occupation numbers 
     1.0000   1.0000   1.0000   1.0000   1.0000   1.0000   1.0000   1.0000
     1.0000   1.0000   0.0000   0.0000   0.0000   0.0000   0.0000   0.0000
     0.0000   0.0000   0.0000   0.0000   0.0000   0.0000   0.0000   0.0000
     0.0000   0.0000   0.0000   0.0000   0.0000   0.0000

          k = 0.4808 0.2776-0.9343 (  1566 PWs)   bands (ev):

   -17.6803 -17.6801 -17.6733 -17.6722 -17.6718  -4.0197  -1.7083   5.2964
     5.6999   6.4279   7.8602   8.1440   8.6524  15.5733  16.2106  17.1881
    17.7447  18.4946  19.1042  23.1417  23.1487  24.3349  25.3446  26.2458
    26.4864  26.9783  27.3519  31.5608  31.6919  31.7005

     occupation numbers 
     1.0000   1.0000   1.0000   1.0000   1.0000   1.0000   1.0000   1.0000
     1.0000   1.0000   0.0000   0.0000   0.0000   0.0000   0.0000   0.0000
     0.0000   0.0000   0.0000   0.0000   0.0000   0.0000   0.0000   0.0000
     0.0000   0.0000   0.0000   0.0000   0.0000   0.0000

          k = 0.4808 0.2776-0.8872 (  1569 PWs)   bands (ev):

   -17.6805 -17.6799 -17.6732 -17.6723 -17.6718  -3.9948  -1.6330   4.7845
     5.4236   6.0374   8.2532   8.5911   9.3311  14.7685  16.1917  17.1876
    17.9282  18.7050  20.0259  22.4325  22.8215  23.9113  26.1753  26.1783
    26.9048  27.3298  27.7333  30.4318  30.5900  30.6254

     occupation numbers 
     1.0000   1.0000   1.0000   1.0000   1.0000   1.0000   1.0000   1.0000
     1.0000   1.0000   0.0000   0.0000   0.0000   0.0000   0.0000   0.0000
     0.0000   0.0000   0.0000   0.0000   0.0000   0.0000   0.0000   0.0000
     0.0000   0.0000   0.0000   0.0000   0.0000   0.0000

          k = 0.4808 0.2776-0.8400 (  1571 PWs)   bands (ev):

   -17.6808 -17.6797 -17.6732 -17.6723 -17.6717  -3.9681  -1.5200   4.2708
     5.1379   5.6726   8.7063   9.0765  10.0294  13.9722  16.2109  17.2320
    18.1760  18.9566  20.8595  21.7352  22.5151  23.6030  25.9697  27.0310
    27.1792  27.6855  28.1915  29.2414  29.6260  29.7886

     occupation numbers 
     1.0000   1.0000   1.0000   1.0000   1.0000   1.0000   1.0000   1.0000
     1.0000   1.0000   0.0000   0.0000   0.0000   0.0000   0.0000   0.0000
     0.0000   0.0000   0.0000   0.0000   0.0000   0.0000   0.0000   0.0000
     0.0000   0.0000   0.0000   0.0000   0.0000   0.0000

          k = 0.4808 0.2776-0.7929 (  1573 PWs)   bands (ev):

   -17.6811 -17.6794 -17.6733 -17.6722 -17.6715  -3.9394  -1.3735   3.7793
     4.8649   5.3339   9.1943   9.5790  10.7304  13.2176  16.2748  17.3240
    18.4729  19.2472  21.0637  21.3414  22.2471  23.6763  25.7722  26.9411
    27.6739  27.8461  28.0926  28.7115  28.7675  29.5508

     occupation numbers 
     1.0000   1.0000   1.0000   1.0000   1.0000   1.0000   1.0000   1.0000
     1.0000   1.0000   0.0000   0.0000   0.0000   0.0000   0.0000   0.0000
     0.0000   0.0000   0.0000   0.0000   0.0000   0.0000   0.0000   0.0000
     0.0000   0.0000   0.0000   0.0000   0.0000   0.0000

          k = 0.4808 0.2776-0.7458 (  1579 PWs)   bands (ev):

   -17.6815 -17.6791 -17.6736 -17.6721 -17.6714  -3.9090  -1.1989   3.3222
     4.6145   5.0216   9.7027  10.0828  11.4148  12.5255  16.3900  17.4656
    18.8123  19.5706  20.4255  21.3027  22.0219  24.2858  25.6178  26.2077
    26.9937  27.2426  27.6606  28.9689  29.3103  29.9032

     occupation numbers 
     1.0000   1.0000   1.0000   1.0000   1.0000   1.0000   1.0000   1.0000
     1.0000   1.0000   0.0000   0.0000   0.0000   0.0000   0.0000   0.0000
     0.0000   0.0000   0.0000   0.0000   0.0000   0.0000   0.0000   0.0000
     0.0000   0.0000   0.0000   0.0000   0.0000   0.0000

          k = 0.4808 0.2776-0.6987 (  1584 PWs)   bands (ev):

   -17.6819 -17.6788 -17.6739 -17.6718 -17.6713  -3.8777  -1.0028   2.9075
     4.3915   4.7358  10.2203  10.5647  11.8344  12.1472  16.5631  17.6588
    19.1891  19.7245  20.0249  21.0094  21.8316  24.7955  25.5493  25.6841
    25.9501  26.6090  26.8372  29.8648  29.9571  30.5252

     occupation numbers 
     1.0000   1.0000   1.0000   1.0000   1.0000   1.0000   1.0000   1.0000
     1.0000   1.0000   0.0000   0.0000   0.0000   0.0000   0.0000   0.0000
     0.0000   0.0000   0.0000   0.0000   0.0000   0.0000   0.0000   0.0000
     0.0000   0.0000   0.0000   0.0000   0.0000   0.0000

          k = 0.4808 0.2776-0.6516 (  1584 PWs)   bands (ev):

   -17.6823 -17.6785 -17.6742 -17.6716 -17.6711  -3.8469  -0.7936   2.5417
     4.1989   4.4775  10.7356  10.9154  11.4388  12.7162  16.8011  17.9025
    19.1922  19.5920  20.3837  20.6628  21.6915  24.0661  24.9670  25.4845
    25.9194  26.0158  26.5482  30.6212  30.8122  31.1536

     occupation numbers 
     1.0000   1.0000   1.0000   1.0000   1.0000   1.0000   1.0000   1.0000
     1.0000   1.0000   0.0000   0.0000   0.0000   0.0000   0.0000   0.0000
     0.0000   0.0000   0.0000   0.0000   0.0000   0.0000   0.0000   0.0000
     0.0000   0.0000   0.0000   0.0000   0.0000   0.0000

          k = 0.4808 0.2776-0.6045 (  1590 PWs)   bands (ev):

   -17.6826 -17.6782 -17.6744 -17.6713 -17.6710  -3.8190  -0.5813   2.2307
     4.0382   4.2486  10.6949  11.2346  11.6148  13.2542  17.1115  18.1705
    18.6836  19.9554  20.3809  20.8249  21.6186  23.1503  24.0512  25.1617
    25.2249  25.5740  27.6542  29.9707  31.2928  31.7780

     occupation numbers 
     1.0000   1.0000   1.0000   1.0000   1.0000   1.0000   1.0000   1.0000
     1.0000   1.0000   0.0000   0.0000   0.0000   0.0000   0.0000   0.0000
     0.0000   0.0000   0.0000   0.0000   0.0000   0.0000   0.0000   0.0000
     0.0000   0.0000   0.0000   0.0000   0.0000   0.0000

          k = 0.4808 0.2776-0.5574 (  1586 PWs)   bands (ev):

   -17.6829 -17.6779 -17.6747 -17.6711 -17.6708  -3.7967  -0.3787   1.9808
     3.9107   4.0530  10.3265  11.6984  11.9662  13.6981  17.5007  18.0554
    18.6585  19.8884  20.5468  21.3031  21.6054  22.3164  23.2129  24.4694
    24.4726  25.6937  28.7413  28.9079  31.9636  32.7381

     occupation numbers 
     1.0000   1.0000   1.0000   1.0000   1.0000   1.0000   1.0000   1.0000
     1.0000   1.0000   0.0000   0.0000   0.0000   0.0000   0.0000   0.0000
     0.0000   0.0000   0.0000   0.0000   0.0000   0.0000   0.0000   0.0000
     0.0000   0.0000   0.0000   0.0000   0.0000   0.0000

          k = 0.4808 0.2776-0.5103 (  1587 PWs)   bands (ev):

   -17.6832 -17.6778 -17.6749 -17.6709 -17.6707  -3.7832  -0.2021   1.7993
     3.8170   3.8968  10.0294  12.1005  12.2638  14.0223  17.6436  17.9710
    19.0470  19.6315  20.8669  21.2527  21.7930  22.0646  22.4858  23.7524
    23.7871  25.9277  27.8481  29.9095  32.6175  33.0549

     occupation numbers 
     1.0000   1.0000   1.0000   1.0000   1.0000   1.0000   1.0000   1.0000
     1.0000   1.0000   0.0000   0.0000   0.0000   0.0000   0.0000   0.0000
     0.0000   0.0000   0.0000   0.0000   0.0000   0.0000   0.0000   0.0000
     0.0000   0.0000   0.0000   0.0000   0.0000   0.0000

          k = 0.4808 0.2776-0.4632 (  1584 PWs)   bands (ev):

   -17.6834 -17.6776 -17.6750 -17.6708 -17.6707  -3.7808  -0.0709   1.6945
     3.7576   3.7884   9.8284  12.4036  12.4716  14.2077  17.3038  18.5111
    19.4001  19.4889  20.5713  21.1063  21.7454  22.4202  22.4351  23.0868
    23.1337  26.2606  26.9853  30.9528  33.0434  33.1436

     occupation numbers 
     1.0000   1.0000   1.0000   1.0000   1.0000   1.0000   1.0000   1.0000
     1.0000   1.0000   0.0000   0.0000   0.0000   0.0000   0.0000   0.0000
     0.0000   0.0000   0.0000   0.0000   0.0000   0.0000   0.0000   0.0000
     0.0000   0.0000   0.0000   0.0000   0.0000   0.0000

          k = 0.4808 0.2776-0.4161 (  1588 PWs)   bands (ev):

   -17.6834 -17.6776 -17.6751 -17.6708 -17.6706  -3.7909  -0.0040   1.6739
     3.7327   3.7362   9.7318  12.5630  12.5710  14.2447  17.0978  18.9489
    19.3127  19.8655  20.0406  21.2836  21.3457  22.3896  22.3899  23.0602
    23.0658  26.1314  26.8531  31.7837  33.0169  33.0561

     occupation numbers 
     1.0000   1.0000   1.0000   1.0000   1.0000   1.0000   1.0000   1.0000
     1.0000   1.0000   0.0000   0.0000   0.0000   0.0000   0.0000   0.0000
     0.0000   0.0000   0.0000   0.0000   0.0000   0.0000   0.0000   0.0000
     0.0000   0.0000   0.0000   0.0000   0.0000   0.0000

          k = 0.4808-0.8327 0.0236 (  1587 PWs)   bands (ev):

   -17.6834 -17.6776 -17.6750 -17.6708 -17.6707  -3.7858  -0.0376   1.6842
     3.7094   3.7981   9.7801  12.4263  12.5779  14.2262  17.1988  18.6741
    19.3382  19.7981  20.2208  21.1931  21.5884  22.3499  22.4675  23.0210
    23.1519  26.1961  26.9192  31.3469  32.7096  33.4480

     occupation numbers 
     1.0000   1.0000   1.0000   1.0000   1.0000   1.0000   1.0000   1.0000
     1.0000   1.0000   0.0000   0.0000   0.0000   0.0000   0.0000   0.0000
     0.0000   0.0000   0.0000   0.0000   0.0000   0.0000   0.0000   0.0000
     0.0000   0.0000   0.0000   0.0000   0.0000   0.0000

          k = 0.4808-0.8327 0.0707 (  1583 PWs)   bands (ev):

   -17.6833 -17.6777 -17.6750 -17.6709 -17.6707  -3.7977  -0.1078   1.7693
     3.6711   3.9307   9.8867  12.1486  12.5780  14.0784  17.3351  18.2044
    19.4251  19.8584  20.4348  21.1183  21.6984  21.9078  22.2832  23.5560
    23.8883  25.7369  27.6566  30.7726  32.1064  33.0905

     occupation numbers 
     1.0000   1.0000   1.0000   1.0000   1.0000   1.0000   1.0000   1.0000
     1.0000   1.0000   0.0000   0.0000   0.0000   0.0000   0.0000   0.0000
     0.0000   0.0000   0.0000   0.0000   0.0000   0.0000   0.0000   0.0000
     0.0000   0.0000   0.0000   0.0000   0.0000   0.0000

          k = 0.4808-0.8327 0.1178 (  1586 PWs)   bands (ev):

   -17.6831 -17.6778 -17.6748 -17.6710 -17.6708  -3.8201  -0.2359   1.9322
     3.6822   4.1036  10.0963  11.7685  12.4354  13.7925  17.5748  17.7459
    19.3341  19.7426  20.7627  21.0663  21.3201  21.8479  22.8835  24.1595
    24.6565  25.3871  28.5472  29.7892  31.6293  32.7187

     occupation numbers 
     1.0000   1.0000   1.0000   1.0000   1.0000   1.0000   1.0000   1.0000
     1.0000   1.0000   0.0000   0.0000   0.0000   0.0000   0.0000   0.0000
     0.0000   0.0000   0.0000   0.0000   0.0000   0.0000   0.0000   0.0000
     0.0000   0.0000   0.0000   0.0000   0.0000   0.0000

          k = 0.4808-0.8327 0.1649 (  1586 PWs)   bands (ev):

   -17.6828 -17.6780 -17.6746 -17.6712 -17.6709  -3.8500  -0.4047   2.1638
     3.7415   4.3100  10.3998  11.3196  12.1718  13.3859  17.3226  17.9207
    19.0374  19.8866  20.3013  20.7414  21.7455  22.2076  23.6902  24.8070
    25.1516  25.4441  28.6588  29.5719  31.0738  32.4281

     occupation numbers 
     1.0000   1.0000   1.0000   1.0000   1.0000   1.0000   1.0000   1.0000
     1.0000   1.0000   0.0000   0.0000   0.0000   0.0000   0.0000   0.0000
     0.0000   0.0000   0.0000   0.0000   0.0000   0.0000   0.0000   0.0000
     0.0000   0.0000   0.0000   0.0000   0.0000   0.0000

          k = 0.4808-0.8327 0.2120 (  1585 PWs)   bands (ev):

   -17.6825 -17.6783 -17.6744 -17.6714 -17.6710  -3.8841  -0.5976   2.4562
     3.8465   4.5447  10.7103  10.8967  11.8267  12.8808  16.9962  18.2139
    18.8541  19.5979  20.2827  20.4265  21.9050  23.0756  24.5798  25.0169
    25.5095  26.2326  27.5140  30.4573  30.6843  31.5935

     occupation numbers 
     1.0000   1.0000   1.0000   1.0000   1.0000   1.0000   1.0000   1.0000
     1.0000   1.0000   0.0000   0.0000   0.0000   0.0000   0.0000   0.0000
     0.0000   0.0000   0.0000   0.0000   0.0000   0.0000   0.0000   0.0000
     0.0000   0.0000   0.0000   0.0000   0.0000   0.0000

          k = 0.4808-0.8327 0.2591 (  1587 PWs)   bands (ev):

   -17.6821 -17.6785 -17.6741 -17.6717 -17.6712  -3.9189  -0.8004   2.8029
     3.9943   4.8037  10.2787  11.1162  11.5709  12.3041  16.7394  18.2240
    18.9570  19.2089  19.9712  20.7094  22.0881  24.0018  24.9803  25.5255
    26.2287  26.4074  27.0244  29.8431  30.6761  31.5034

     occupation numbers 
     1.0000   1.0000   1.0000   1.0000   1.0000   1.0000   1.0000   1.0000
     1.0000   1.0000   0.0000   0.0000   0.0000   0.0000   0.0000   0.0000
     0.0000   0.0000   0.0000   0.0000   0.0000   0.0000   0.0000   0.0000
     0.0000   0.0000   0.0000   0.0000   0.0000   0.0000

          k = 0.4808-0.8327 0.3062 (  1581 PWs)   bands (ev):

   -17.6817 -17.6788 -17.6738 -17.6719 -17.6713  -3.9517  -1.0018   3.1981
     4.1825   5.0843   9.7514  10.8062  11.6254  12.0151  16.5466  18.0691
    18.6131  19.4791  19.7080  21.0822  22.3076  24.6899  25.0686  25.5028
    26.5599  26.9660  27.7835  29.2809  29.8148  30.7543

     occupation numbers 
     1.0000   1.0000   1.0000   1.0000   1.0000   1.0000   1.0000   1.0000
     1.0000   1.0000   0.0000   0.0000   0.0000   0.0000   0.0000   0.0000
     0.0000   0.0000   0.0000   0.0000   0.0000   0.0000   0.0000   0.0000
     0.0000   0.0000   0.0000   0.0000   0.0000   0.0000

          k = 0.4808-0.8327 0.3533 (  1577 PWs)   bands (ev):

   -17.6813 -17.6792 -17.6735 -17.6721 -17.6715  -3.9802  -1.1920   3.6349
     4.4092   5.3845   9.2261  10.3233  10.9751  12.6196  16.4111  17.9052
    18.2323  19.2678  20.1256  21.4126  22.5552  24.1293  25.1236  26.0689
    27.5112  27.6453  28.2878  28.8909  29.2341  30.0816

     occupation numbers 
     1.0000   1.0000   1.0000   1.0000   1.0000   1.0000   1.0000   1.0000
     1.0000   1.0000   0.0000   0.0000   0.0000   0.0000   0.0000   0.0000
     0.0000   0.0000   0.0000   0.0000   0.0000   0.0000   0.0000   0.0000
     0.0000   0.0000   0.0000   0.0000   0.0000   0.0000

          k = 0.4808-0.8327 0.4004 (  1574 PWs)   bands (ev):

   -17.6810 -17.6795 -17.6733 -17.6723 -17.6716  -4.0033  -1.3634   4.1042
     4.6737   5.7020   8.7181   9.8144  10.2910  13.3212  16.3272  17.7121
    17.9621  18.9851  20.6440  21.5162  22.8112  23.5541  25.2832  26.6339
    27.6298  28.2453  28.3227  28.9803  29.5635  29.6590

     occupation numbers 
     1.0000   1.0000   1.0000   1.0000   1.0000   1.0000   1.0000   1.0000
     1.0000   1.0000   0.0000   0.0000   0.0000   0.0000   0.0000   0.0000
     0.0000   0.0000   0.0000   0.0000   0.0000   0.0000   0.0000   0.0000
     0.0000   0.0000   0.0000   0.0000   0.0000   0.0000

          k = 0.4808-0.8327 0.4475 (  1570 PWs)   bands (ev):

   -17.6807 -17.6797 -17.6732 -17.6723 -17.6717  -4.0205  -1.5092   4.5887
     4.9787   6.0308   8.2452   9.2965   9.6128  14.0795  16.2894  17.4621
    17.8401  18.7341  20.6807  21.5786  23.0836  23.5786  25.4902  26.6023
    26.8934  28.2063  28.5202  29.3013  30.2095  30.3157

     occupation numbers 
     1.0000   1.0000   1.0000   1.0000   1.0000   1.0000   1.0000   1.0000
     1.0000   1.0000   0.0000   0.0000   0.0000   0.0000   0.0000   0.0000
     0.0000   0.0000   0.0000   0.0000   0.0000   0.0000   0.0000   0.0000
     0.0000   0.0000   0.0000   0.0000   0.0000   0.0000

          k = 0.4808-0.8327 0.4946 (  1568 PWs)   bands (ev):

   -17.6804 -17.6799 -17.6732 -17.6723 -17.6718  -4.0322  -1.6239   5.0506
     5.3343   6.3553   7.8415   8.7604   8.9820  14.8707  16.2922  17.2355
    17.7910  18.5238  19.9218  22.1378  23.4040  23.9339  25.6869  26.1290
    26.3063  27.7403  28.0854  30.3128  31.0461  31.3754

     occupation numbers 
     1.0000   1.0000   1.0000   1.0000   1.0000   1.0000   1.0000   1.0000
     1.0000   1.0000   0.0000   0.0000   0.0000   0.0000   0.0000   0.0000
     0.0000   0.0000   0.0000   0.0000   0.0000   0.0000   0.0000   0.0000
     0.0000   0.0000   0.0000   0.0000   0.0000   0.0000

          k = 0.4808-0.8327 0.5417 (  1570 PWs)   bands (ev):

   -17.6803 -17.6801 -17.6733 -17.6722 -17.6719  -4.0392  -1.7030   5.4422
     5.7125   6.6338   7.5943   8.1959   8.4526  15.6382  16.3273  17.1016
    17.7653  18.3638  19.0361  22.7940  23.7060  24.3450  25.2674  25.9457
    26.0964  27.1998  27.6260  31.4787  31.9662  32.3088

     occupation numbers 
     1.0000   1.0000   1.0000   1.0000   1.0000   1.0000   1.0000   1.0000
     1.0000   1.0000   0.0000   0.0000   0.0000   0.0000   0.0000   0.0000
     0.0000   0.0000   0.0000   0.0000   0.0000   0.0000   0.0000   0.0000
     0.0000   0.0000   0.0000   0.0000   0.0000   0.0000

          k = 0.4808-0.8327 0.5888 (  1559 PWs)   bands (ev):

   -17.6802 -17.6801 -17.6733 -17.6721 -17.6719  -4.0425  -1.7434   5.7443
     5.9138   6.8394   7.5822   7.7813   8.0219  16.1636  16.3791  17.2306
    17.6512  18.2654  18.3275  23.4388  23.8298  24.5999  24.6966  25.9203
    26.1029  26.8891  27.2651  32.5667  32.7316  32.9237

     occupation numbers 
     1.0000   1.0000   1.0000   1.0000   1.0000   1.0000   1.0000   1.0000
     1.0000   1.0000   0.0000   0.0000   0.0000   0.0000   0.0000   0.0000
     0.0000   0.0000   0.0000   0.0000   0.0000   0.0000   0.0000   0.0000
     0.0000   0.0000   0.0000   0.0000   0.0000   0.0000

     the Fermi energy is     7.2526 ev
     (compare with:     7.1721 eV, computed in scf)

     Writing output data file ./out/GeTe.save/
 
     init_run     :      1.10s CPU      1.59s WALL (       1 calls)
     electrons    :  10161.22s CPU  15190.00s WALL (       1 calls)

     Called by init_run:
     wfcinit      :      0.00s CPU      0.00s WALL (       1 calls)
     wfcinit:atom :      0.41s CPU      0.54s WALL (    4563 calls)
     wfcinit:wfcr :    341.25s CPU    514.46s WALL (    4563 calls)
     potinit      :      0.29s CPU      0.45s WALL (       1 calls)
     hinit0       :      0.34s CPU      0.49s WALL (       1 calls)

     Called by electrons:
     c_bands      :  10155.07s CPU  15180.97s WALL (       1 calls)
     v_of_rho     :      0.08s CPU      0.09s WALL (       1 calls)
     v_h          :      0.01s CPU      0.01s WALL (       1 calls)
     v_xc         :      0.06s CPU      0.08s WALL (       1 calls)
     newd         :      0.08s CPU      0.14s WALL (       1 calls)

     Called by c_bands:
     init_us_2    :      0.65s CPU      0.91s WALL (    4563 calls)
     cegterg      :   9795.27s CPU  14631.21s WALL (   13167 calls)

     Called by sum_band:

     Called by *egterg:
     cdiaghg      :    978.59s CPU   1484.43s WALL (  225365 calls)
     cegterg:over :    831.47s CPU   1249.75s WALL (  220802 calls)
     cegterg:upda :     27.08s CPU     39.87s WALL (  220802 calls)
     cegterg:last :     61.00s CPU     88.28s WALL (  115502 calls)
     h_psi        :   7499.54s CPU  11190.63s WALL (  238532 calls)
     s_psi        :     14.75s CPU     21.39s WALL (  238532 calls)
     g_psi        :      4.70s CPU      7.01s WALL (  220802 calls)

     Called by h_psi:
     h_psi:calbec :    518.00s CPU    771.59s WALL (  238532 calls)
     vloc_psi     :   6958.67s CPU  10385.31s WALL (  238532 calls)
     add_vuspsi   :     18.28s CPU     27.11s WALL (  238532 calls)

     General routines
     calbec       :    516.97s CPU    770.32s WALL (  238532 calls)
     fft          :      0.06s CPU      0.12s WALL (      13 calls)
     ffts         :      0.01s CPU      0.02s WALL (       1 calls)
     fftw         :   6875.96s CPU  10267.96s WALL ( 7022024 calls)
     interpolate  :      0.02s CPU      0.03s WALL (       1 calls)
     davcio       :      1.12s CPU      7.53s WALL (    9126 calls)
 
     Parallel routines
     fft_scatt_xy :    103.46s CPU    149.10s WALL ( 7022038 calls)
     fft_scatt_yz :   5978.59s CPU   8958.61s WALL ( 7022038 calls)
 
     PWSCF        :      2h51m CPU      4h15m WALL

 
   This run was terminated on:  11:25:14  13Aug2021            

=------------------------------------------------------------------------------=
   JOB DONE.
=------------------------------------------------------------------------------=
