
     Program PWSCF v.7.0 starts on  1Feb2022 at  5:42:23 

     This program is part of the open-source Quantum ESPRESSO suite
     for quantum simulation of materials; please cite
         "P. Giannozzi et al., J. Phys.:Condens. Matter 21 395502 (2009);
         "P. Giannozzi et al., J. Phys.:Condens. Matter 29 465901 (2017);
         "P. Giannozzi et al., J. Chem. Phys. 152 154105 (2020);
          URL http://www.quantum-espresso.org", 
     in publications or presentations arising from this work. More details at
     http://www.quantum-espresso.org/quote

     Parallel version (MPI), running on     4 processors

     MPI processes distributed on     1 nodes
     R & G space division:  proc/nbgrp/npool/nimage =       4
     250629 MiB available memory on the printing compute node when the environment starts
 
     Waiting for input...
     Reading input from standard input

     Current dimensions of program PWSCF are:
     Max number of different atomic species (ntypx) = 10
     Max number of k-points (npk) =  40000
     Max angular momentum in pseudopotentials (lmaxx) =  4

     Subspace diagonalization in iterative solution of the eigenvalue problem:
     a serial algorithm will be used

 
     Parallelization info
     --------------------
     sticks:   dense  smooth     PW     G-vecs:    dense   smooth      PW
     Min          60      60     20                 4546     4546     852
     Max          61      61     22                 4565     4565     860
     Sum         241     241     85                18211    18211    3425
 
     Using Slab Decomposition
 


     bravais-lattice index     =            4
     lattice parameter (alat)  =       4.6561  a.u.
     unit-cell volume          =     532.1899 (a.u.)^3
     number of atoms/cell      =            2
     number of atomic types    =            1
     number of electrons       =         8.00
     number of Kohn-Sham states=            8
     kinetic-energy cutoff     =      40.0000  Ry
     charge density cutoff     =     160.0000  Ry
     scf convergence threshold =      1.0E-06
     mixing beta               =       0.7000
     number of iterations used =            8  plain     mixing
     Exchange-correlation= PBE
                           (   1   4   3   4   0   0   0)

     celldm(1)=   4.656107  celldm(2)=   0.000000  celldm(3)=   6.087896
     celldm(4)=   0.000000  celldm(5)=   0.000000  celldm(6)=   0.000000

     crystal axes: (cart. coord. in units of alat)
               a(1) = (   1.000000   0.000000   0.000000 )  
               a(2) = (  -0.500000   0.866025   0.000000 )  
               a(3) = (   0.000000   0.000000   6.087896 )  

     reciprocal axes: (cart. coord. in units 2 pi/alat)
               b(1) = (  1.000000  0.577350  0.000000 )  
               b(2) = (  0.000000  1.154701  0.000000 )  
               b(3) = (  0.000000  0.000000  0.164260 )  


     PseudoPot. # 1 for C  read from file:
     ../pseudo/C.pbe-n-rrkjus_psl.0.1.UPF
     MD5 check sum: 96a6a315177d77e6c95bf6fd3870f9e3
     Pseudo is Ultrasoft + core correction, Zval =  4.0
     Generated using &quot;atomic&quot; code by A. Dal Corso  v.6.3MaX
     Using radial grid of 1073 points,  4 beta functions with: 
                l(1) =   0
                l(2) =   0
                l(3) =   1
                l(4) =   1
     Q(r) pseudized with 0 coefficients 


     atomic species   valence    mass     pseudopotential
        C              4.00    12.01070     C ( 1.00)

     24 Sym. Ops., with inversion, found



   Cartesian axes

     site n.     atom                  positions (alat units)
         1           C   tau(   1) = (   0.0000000   0.5773503   3.0439478  )
         2           C   tau(   2) = (   0.5000000   0.2886751   3.0439478  )

     number of k points=    19  Fermi-Dirac smearing, width (Ry)=  0.0300
                       cart. coord. in units 2pi/alat
        k(    1) = (   0.0000000   0.0000000   0.0000000), wk =   0.0138889
        k(    2) = (   0.0000000   0.0962250   0.0000000), wk =   0.0833333
        k(    3) = (   0.0000000   0.1924501   0.0000000), wk =   0.0833333
        k(    4) = (   0.0000000   0.2886751   0.0000000), wk =   0.0833333
        k(    5) = (   0.0000000   0.3849002   0.0000000), wk =   0.0833333
        k(    6) = (   0.0000000   0.4811252   0.0000000), wk =   0.0833333
        k(    7) = (   0.0000000  -0.5773503   0.0000000), wk =   0.0416667
        k(    8) = (   0.0833333   0.1443376   0.0000000), wk =   0.0833333
        k(    9) = (   0.0833333   0.2405626   0.0000000), wk =   0.1666667
        k(   10) = (   0.0833333   0.3367877   0.0000000), wk =   0.1666667
        k(   11) = (   0.0833333   0.4330127   0.0000000), wk =   0.1666667
        k(   12) = (   0.0833333   0.5292377   0.0000000), wk =   0.1666667
        k(   13) = (   0.1666667   0.2886751   0.0000000), wk =   0.0833333
        k(   14) = (   0.1666667   0.3849002   0.0000000), wk =   0.1666667
        k(   15) = (   0.1666667   0.4811252   0.0000000), wk =   0.1666667
        k(   16) = (   0.1666667   0.5773503   0.0000000), wk =   0.0833333
        k(   17) = (   0.2500000   0.4330127   0.0000000), wk =   0.0833333
        k(   18) = (   0.2500000   0.5292377   0.0000000), wk =   0.1666667
        k(   19) = (   0.3333333   0.5773503   0.0000000), wk =   0.0277778

     Dense  grid:    18211 G-vectors     FFT dimensions: (  20,  20, 120)

     Estimated max dynamical RAM per process >       7.66 MB

     Estimated total dynamical RAM >      30.63 MB

     Check: negative core charge=   -0.000016

     Initial potential from superposition of free atoms

     starting charge       7.9999, renormalised to       8.0000

     negative rho (up, down):  1.028E-04 0.000E+00
     Starting wfcs are    8 randomized atomic wfcs

     total cpu time spent up to now is        0.2 secs

     Self-consistent Calculation

     iteration #  1     ecut=    40.00 Ry     beta= 0.70
     Davidson diagonalization with overlap
     ethr =  1.00E-02,  avg # of iterations =  7.9

     negative rho (up, down):  1.920E-05 0.000E+00

     total cpu time spent up to now is        0.4 secs

     total energy              =     -23.85909860 Ry
     estimated scf accuracy    <       0.11496292 Ry

     iteration #  2     ecut=    40.00 Ry     beta= 0.70
     Davidson diagonalization with overlap
     ethr =  1.44E-03,  avg # of iterations =  5.2

     negative rho (up, down):  3.090E-04 0.000E+00

     total cpu time spent up to now is        0.6 secs

     total energy              =     -23.89805383 Ry
     estimated scf accuracy    <       0.01316554 Ry

     iteration #  3     ecut=    40.00 Ry     beta= 0.70
     Davidson diagonalization with overlap
     c_bands:  1 eigenvalues not converged
     c_bands:  1 eigenvalues not converged
     c_bands:  2 eigenvalues not converged
     ethr =  1.65E-04,  avg # of iterations = 14.7

     negative rho (up, down):  2.504E-04 0.000E+00

     total cpu time spent up to now is        1.0 secs

     total energy              =     -23.90963933 Ry
     estimated scf accuracy    <       0.00364111 Ry

     iteration #  4     ecut=    40.00 Ry     beta= 0.70
     Davidson diagonalization with overlap
     ethr =  4.55E-05,  avg # of iterations =  5.3

     negative rho (up, down):  4.704E-04 0.000E+00

     total cpu time spent up to now is        1.1 secs

     total energy              =     -23.91031339 Ry
     estimated scf accuracy    <       0.00026940 Ry

     iteration #  5     ecut=    40.00 Ry     beta= 0.70
     Davidson diagonalization with overlap
     c_bands:  2 eigenvalues not converged
     c_bands:  1 eigenvalues not converged
     c_bands:  1 eigenvalues not converged
     c_bands:  1 eigenvalues not converged
     c_bands:  1 eigenvalues not converged
     c_bands:  1 eigenvalues not converged
     ethr =  3.37E-06,  avg # of iterations = 13.5

     negative rho (up, down):  3.969E-04 0.000E+00

     total cpu time spent up to now is        1.5 secs

     total energy              =     -23.91063670 Ry
     estimated scf accuracy    <       0.00035005 Ry

     iteration #  6     ecut=    40.00 Ry     beta= 0.70
     Davidson diagonalization with overlap
     c_bands:  2 eigenvalues not converged
     c_bands:  1 eigenvalues not converged
     c_bands:  1 eigenvalues not converged
     c_bands:  1 eigenvalues not converged
     ethr =  3.37E-06,  avg # of iterations =  8.3

     negative rho (up, down):  4.011E-04 0.000E+00

     total cpu time spent up to now is        1.7 secs

     total energy              =     -23.91067595 Ry
     estimated scf accuracy    <       0.00000572 Ry

     iteration #  7     ecut=    40.00 Ry     beta= 0.70
     Davidson diagonalization with overlap
     c_bands:  1 eigenvalues not converged
     c_bands:  1 eigenvalues not converged
     ethr =  7.15E-08,  avg # of iterations =  8.7

     negative rho (up, down):  3.992E-04 0.000E+00

     total cpu time spent up to now is        2.0 secs

     total energy              =     -23.91070281 Ry
     estimated scf accuracy    <       0.00001688 Ry

     iteration #  8     ecut=    40.00 Ry     beta= 0.70
     Davidson diagonalization with overlap
     c_bands:  1 eigenvalues not converged
     ethr =  7.15E-08,  avg # of iterations =  3.5

     negative rho (up, down):  4.027E-04 0.000E+00

     total cpu time spent up to now is        2.1 secs

     total energy              =     -23.91070186 Ry
     estimated scf accuracy    <       0.00000338 Ry

     iteration #  9     ecut=    40.00 Ry     beta= 0.70
     Davidson diagonalization with overlap
     ethr =  4.23E-08,  avg # of iterations =  3.6

     negative rho (up, down):  4.031E-04 0.000E+00

     total cpu time spent up to now is        2.3 secs

     End of self-consistent calculation

          k = 0.0000 0.0000 0.0000 (  2289 PWs)   bands (ev):

   -21.2541  -9.3555  -4.7948  -4.7948   1.1568   1.8992   2.1259   4.1397

          k = 0.0000 0.0962 0.0000 (  2286 PWs)   bands (ev):

   -21.0902  -9.1593  -5.4438  -5.1333   1.3827   2.1259   2.3515   4.3631

          k = 0.0000 0.1925 0.0000 (  2280 PWs)   bands (ev):

   -20.6001  -8.5757  -7.0782  -5.9259   2.0602   2.8050   3.0288   5.0301

          k = 0.0000 0.2887 0.0000 (  2278 PWs)   bands (ev):

   -19.7897  -9.1739  -7.6242  -6.8059   3.1880   3.9272   4.1575   5.5160

          k = 0.0000 0.3849 0.0000 (  2272 PWs)   bands (ev):

   -18.6710 -11.3756  -7.5396  -6.3549   3.1940   4.7597   5.5370   5.7131

          k = 0.0000 0.4811 0.0000 (  2282 PWs)   bands (ev):

   -17.2749 -13.4752  -8.0127  -4.9309   1.0577   5.7589   6.7900   7.5569

          k = 0.0000-0.5774 0.0000 (  2260 PWs)   bands (ev):

   -16.0082 -14.9842  -8.1751  -4.0855  -0.0413   5.6816   9.1635   9.2691

          k = 0.0833 0.1443 0.0000 (  2291 PWs)   bands (ev):

   -20.7632  -8.7693  -6.4752  -5.8106   1.8345   2.5788   2.8031   4.8085

          k = 0.0833 0.2406 0.0000 (  2281 PWs)   bands (ev):

   -20.1130  -8.1822  -8.0005  -6.8086   2.7375   3.4823   3.7065   5.6916

          k = 0.0833 0.3368 0.0000 (  2266 PWs)   bands (ev):

   -19.1483 -10.2532  -7.6948  -6.8836   4.0893   4.2000   4.8644   5.0607

          k = 0.0833 0.4330 0.0000 (  2279 PWs)   bands (ev):

   -17.8878 -12.3750  -8.3297  -5.5029   2.0059   5.8771   6.5732   6.6419

          k = 0.0833 0.5292 0.0000 (  2273 PWs)   bands (ev):

   -16.4073 -14.3170  -8.6581  -4.1923   0.2355   6.4180   8.1150   8.8498

          k = 0.1667 0.2887 0.0000 (  2273 PWs)   bands (ev):

   -19.3084  -9.5101  -8.1703  -7.0626   3.8648   4.6072   4.6661   4.8358

          k = 0.1667 0.3849 0.0000 (  2279 PWs)   bands (ev):

   -18.2006 -11.2361  -9.2260  -5.8085   2.7162   5.4368   6.1687   6.4126

          k = 0.1667 0.4811 0.0000 (  2273 PWs)   bands (ev):

   -16.8244 -13.1468  -9.8014  -4.3805   0.8020   7.4369   8.1196   8.2935

          k = 0.1667 0.5774 0.0000 (  2254 PWs)   bands (ev):

   -15.5875 -14.5841  -9.9861  -3.4868  -0.2674   8.2229   9.7596   9.7880

          k = 0.2500 0.4330 0.0000 (  2269 PWs)   bands (ev):

   -16.9723 -12.2691 -10.7100  -4.4646   1.1003   7.2178   7.8494   8.2069

          k = 0.2500 0.5292 0.0000 (  2253 PWs)   bands (ev):

   -15.5493 -13.6911 -11.4170  -3.0776  -0.4214   9.0947   9.3776  10.3762

          k = 0.3333 0.5774 0.0000 (  2259 PWs)   bands (ev):

   -14.3312 -14.3312 -12.3159  -1.7204  -1.7204   8.8788  11.1057  11.1065

     the Fermi energy is    -1.7677 ev

!    total energy              =     -23.91070306 Ry
     estimated scf accuracy    <       0.00000006 Ry
     smearing contrib. (-TS)   =      -0.00391069 Ry
     internal energy E=F+TS    =     -23.90679237 Ry

     The total energy is F=E-TS. E is the sum of the following terms:
     one-electron contribution =    -157.38743898 Ry
     hartree contribution      =      80.15399563 Ry
     xc contribution           =      -8.30299611 Ry
     ewald contribution        =      61.62964709 Ry

     convergence has been achieved in   9 iterations

     Writing all to output data dir ../tmp/gr.save/
 
     init_run     :      0.09s CPU      0.15s WALL (       1 calls)
     electrons    :      1.59s CPU      2.06s WALL (       1 calls)

     Called by init_run:
     wfcinit      :      0.04s CPU      0.04s WALL (       1 calls)
     potinit      :      0.01s CPU      0.01s WALL (       1 calls)
     hinit0       :      0.03s CPU      0.09s WALL (       1 calls)

     Called by electrons:
     c_bands      :      1.40s CPU      1.82s WALL (       9 calls)
     sum_band     :      0.15s CPU      0.20s WALL (       9 calls)
     v_of_rho     :      0.03s CPU      0.03s WALL (      10 calls)
     newd         :      0.01s CPU      0.01s WALL (      10 calls)
     mix_rho      :      0.00s CPU      0.00s WALL (       9 calls)

     Called by c_bands:
     init_us_2    :      0.01s CPU      0.02s WALL (     361 calls)
     init_us_2:cp :      0.01s CPU      0.02s WALL (     361 calls)
     cegterg      :      1.37s CPU      1.78s WALL (     171 calls)

     Called by *egterg:
     cdiaghg      :      0.08s CPU      0.10s WALL (    1514 calls)
     h_psi        :      1.16s CPU      1.50s WALL (    1533 calls)
     s_psi        :      0.01s CPU      0.02s WALL (    1533 calls)
     g_psi        :      0.00s CPU      0.01s WALL (    1343 calls)

     Called by h_psi:
     h_psi:calbec :      0.05s CPU      0.06s WALL (    1533 calls)
     vloc_psi     :      1.09s CPU      1.41s WALL (    1533 calls)
     add_vuspsi   :      0.01s CPU      0.02s WALL (    1533 calls)

     General routines
     calbec       :      0.05s CPU      0.07s WALL (    1704 calls)
     fft          :      0.02s CPU      0.08s WALL (     110 calls)
     ffts         :      0.00s CPU      0.00s WALL (       9 calls)
     fftw         :      1.16s CPU      1.50s WALL (   13736 calls)
 
     Parallel routines
 
     PWSCF        :      1.72s CPU      2.28s WALL

 
   This run was terminated on:   5:42:25   1Feb2022            

=------------------------------------------------------------------------------=
   JOB DONE.
=------------------------------------------------------------------------------=
