
     Program PWSCF v.7.0 starts on  1Feb2022 at  5:42:26 

     This program is part of the open-source Quantum ESPRESSO suite
     for quantum simulation of materials; please cite
         "P. Giannozzi et al., J. Phys.:Condens. Matter 21 395502 (2009);
         "P. Giannozzi et al., J. Phys.:Condens. Matter 29 465901 (2017);
         "P. Giannozzi et al., J. Chem. Phys. 152 154105 (2020);
          URL http://www.quantum-espresso.org", 
     in publications or presentations arising from this work. More details at
     http://www.quantum-espresso.org/quote

     Parallel version (MPI), running on     4 processors

     MPI processes distributed on     1 nodes
     R & G space division:  proc/nbgrp/npool/nimage =       4
     250629 MiB available memory on the printing compute node when the environment starts
 
     Waiting for input...
     Reading input from standard input

     Current dimensions of program PWSCF are:
     Max number of different atomic species (ntypx) = 10
     Max number of k-points (npk) =  40000
     Max angular momentum in pseudopotentials (lmaxx) =  4

     Subspace diagonalization in iterative solution of the eigenvalue problem:
     a serial algorithm will be used

 
     Parallelization info
     --------------------
     sticks:   dense  smooth     PW     G-vecs:    dense   smooth      PW
     Min          60      60     20                 4546     4546     852
     Max          61      61     22                 4565     4565     860
     Sum         241     241     85                18211    18211    3425
 
     Using Slab Decomposition
 


     bravais-lattice index     =            4
     lattice parameter (alat)  =       4.6561  a.u.
     unit-cell volume          =     532.1899 (a.u.)^3
     number of atoms/cell      =            2
     number of atomic types    =            1
     number of electrons       =         8.00
     number of Kohn-Sham states=            8
     kinetic-energy cutoff     =      40.0000  Ry
     charge density cutoff     =     160.0000  Ry
     scf convergence threshold =      1.0E-06
     mixing beta               =       0.7000
     number of iterations used =            8  plain     mixing
     Exchange-correlation= PBE
                           (   1   4   3   4   0   0   0)

     celldm(1)=   4.656107  celldm(2)=   0.000000  celldm(3)=   6.087896
     celldm(4)=   0.000000  celldm(5)=   0.000000  celldm(6)=   0.000000

     crystal axes: (cart. coord. in units of alat)
               a(1) = (   1.000000   0.000000   0.000000 )  
               a(2) = (  -0.500000   0.866025   0.000000 )  
               a(3) = (   0.000000   0.000000   6.087896 )  

     reciprocal axes: (cart. coord. in units 2 pi/alat)
               b(1) = (  1.000000  0.577350  0.000000 )  
               b(2) = (  0.000000  1.154701  0.000000 )  
               b(3) = (  0.000000  0.000000  0.164260 )  


     PseudoPot. # 1 for C  read from file:
     ../pseudo/C.pbe-n-rrkjus_psl.0.1.UPF
     MD5 check sum: 96a6a315177d77e6c95bf6fd3870f9e3
     Pseudo is Ultrasoft + core correction, Zval =  4.0
     Generated using &quot;atomic&quot; code by A. Dal Corso  v.6.3MaX
     Using radial grid of 1073 points,  4 beta functions with: 
                l(1) =   0
                l(2) =   0
                l(3) =   1
                l(4) =   1
     Q(r) pseudized with 0 coefficients 


     atomic species   valence    mass     pseudopotential
        C              4.00    12.01070     C ( 1.00)

     24 Sym. Ops., with inversion, found



   Cartesian axes

     site n.     atom                  positions (alat units)
         1           C   tau(   1) = (   0.0000000   0.5773503   3.0439478  )
         2           C   tau(   2) = (   0.5000000   0.2886751   3.0439478  )

     number of k points=    19  Fermi-Dirac smearing, width (Ry)=  0.0350
                       cart. coord. in units 2pi/alat
        k(    1) = (   0.0000000   0.0000000   0.0000000), wk =   0.0138889
        k(    2) = (   0.0000000   0.0962250   0.0000000), wk =   0.0833333
        k(    3) = (   0.0000000   0.1924501   0.0000000), wk =   0.0833333
        k(    4) = (   0.0000000   0.2886751   0.0000000), wk =   0.0833333
        k(    5) = (   0.0000000   0.3849002   0.0000000), wk =   0.0833333
        k(    6) = (   0.0000000   0.4811252   0.0000000), wk =   0.0833333
        k(    7) = (   0.0000000  -0.5773503   0.0000000), wk =   0.0416667
        k(    8) = (   0.0833333   0.1443376   0.0000000), wk =   0.0833333
        k(    9) = (   0.0833333   0.2405626   0.0000000), wk =   0.1666667
        k(   10) = (   0.0833333   0.3367877   0.0000000), wk =   0.1666667
        k(   11) = (   0.0833333   0.4330127   0.0000000), wk =   0.1666667
        k(   12) = (   0.0833333   0.5292377   0.0000000), wk =   0.1666667
        k(   13) = (   0.1666667   0.2886751   0.0000000), wk =   0.0833333
        k(   14) = (   0.1666667   0.3849002   0.0000000), wk =   0.1666667
        k(   15) = (   0.1666667   0.4811252   0.0000000), wk =   0.1666667
        k(   16) = (   0.1666667   0.5773503   0.0000000), wk =   0.0833333
        k(   17) = (   0.2500000   0.4330127   0.0000000), wk =   0.0833333
        k(   18) = (   0.2500000   0.5292377   0.0000000), wk =   0.1666667
        k(   19) = (   0.3333333   0.5773503   0.0000000), wk =   0.0277778

     Dense  grid:    18211 G-vectors     FFT dimensions: (  20,  20, 120)

     Estimated max dynamical RAM per process >       7.66 MB

     Estimated total dynamical RAM >      30.63 MB

     Check: negative core charge=   -0.000016

     Initial potential from superposition of free atoms

     starting charge       7.9999, renormalised to       8.0000

     negative rho (up, down):  1.028E-04 0.000E+00
     Starting wfcs are    8 randomized atomic wfcs

     total cpu time spent up to now is        0.2 secs

     Self-consistent Calculation

     iteration #  1     ecut=    40.00 Ry     beta= 0.70
     Davidson diagonalization with overlap
     ethr =  1.00E-02,  avg # of iterations =  7.9

     negative rho (up, down):  1.927E-05 0.000E+00

     total cpu time spent up to now is        0.4 secs

     total energy              =     -23.85969257 Ry
     estimated scf accuracy    <       0.11506661 Ry

     iteration #  2     ecut=    40.00 Ry     beta= 0.70
     Davidson diagonalization with overlap
     ethr =  1.44E-03,  avg # of iterations =  5.2

     negative rho (up, down):  3.095E-04 0.000E+00

     total cpu time spent up to now is        0.6 secs

     total energy              =     -23.89885026 Ry
     estimated scf accuracy    <       0.01309756 Ry

     iteration #  3     ecut=    40.00 Ry     beta= 0.70
     Davidson diagonalization with overlap
     c_bands:  1 eigenvalues not converged
     c_bands:  1 eigenvalues not converged
     c_bands:  1 eigenvalues not converged
     c_bands:  2 eigenvalues not converged
     ethr =  1.64E-04,  avg # of iterations = 15.2

     negative rho (up, down):  2.024E-04 0.000E+00

     total cpu time spent up to now is        1.0 secs

     total energy              =     -23.91041647 Ry
     estimated scf accuracy    <       0.00364273 Ry

     iteration #  4     ecut=    40.00 Ry     beta= 0.70
     Davidson diagonalization with overlap
     ethr =  4.55E-05,  avg # of iterations =  4.9

     negative rho (up, down):  4.375E-04 0.000E+00

     total cpu time spent up to now is        1.1 secs

     total energy              =     -23.91108708 Ry
     estimated scf accuracy    <       0.00027383 Ry

     iteration #  5     ecut=    40.00 Ry     beta= 0.70
     Davidson diagonalization with overlap
     c_bands:  2 eigenvalues not converged
     c_bands:  1 eigenvalues not converged
     c_bands:  1 eigenvalues not converged
     c_bands:  1 eigenvalues not converged
     c_bands:  1 eigenvalues not converged
     c_bands:  1 eigenvalues not converged
     ethr =  3.42E-06,  avg # of iterations = 13.8

     negative rho (up, down):  3.549E-04 0.000E+00

     total cpu time spent up to now is        1.5 secs

     total energy              =     -23.91141791 Ry
     estimated scf accuracy    <       0.00036531 Ry

     iteration #  6     ecut=    40.00 Ry     beta= 0.70
     Davidson diagonalization with overlap
     c_bands:  2 eigenvalues not converged
     c_bands:  1 eigenvalues not converged
     c_bands:  1 eigenvalues not converged
     ethr =  3.42E-06,  avg # of iterations =  7.9

     negative rho (up, down):  3.558E-04 0.000E+00

     total cpu time spent up to now is        1.7 secs

     total energy              =     -23.91145393 Ry
     estimated scf accuracy    <       0.00000849 Ry

     iteration #  7     ecut=    40.00 Ry     beta= 0.70
     Davidson diagonalization with overlap
     c_bands:  1 eigenvalues not converged
     c_bands:  1 eigenvalues not converged
     ethr =  1.06E-07,  avg # of iterations =  7.8

     negative rho (up, down):  3.558E-04 0.000E+00

     total cpu time spent up to now is        2.0 secs

     total energy              =     -23.91148303 Ry
     estimated scf accuracy    <       0.00001619 Ry

     iteration #  8     ecut=    40.00 Ry     beta= 0.70
     Davidson diagonalization with overlap
     c_bands:  1 eigenvalues not converged
     ethr =  1.06E-07,  avg # of iterations =  3.9

     negative rho (up, down):  3.589E-04 0.000E+00

     total cpu time spent up to now is        2.1 secs

     total energy              =     -23.91148177 Ry
     estimated scf accuracy    <       0.00000430 Ry

     iteration #  9     ecut=    40.00 Ry     beta= 0.70
     Davidson diagonalization with overlap
     ethr =  5.37E-08,  avg # of iterations =  2.5

     negative rho (up, down):  3.597E-04 0.000E+00

     total cpu time spent up to now is        2.2 secs

     End of self-consistent calculation

          k = 0.0000 0.0000 0.0000 (  2289 PWs)   bands (ev):

   -21.2566  -9.3586  -4.7967  -4.7967   1.1551   1.8976   2.1263   4.1400

          k = 0.0000 0.0962 0.0000 (  2286 PWs)   bands (ev):

   -21.0927  -9.1623  -5.4457  -5.1352   1.3810   2.1242   2.3520   4.3629

          k = 0.0000 0.1925 0.0000 (  2280 PWs)   bands (ev):

   -20.6026  -8.5788  -7.0802  -5.9278   2.0585   2.8033   3.0294   5.0299

          k = 0.0000 0.2887 0.0000 (  2278 PWs)   bands (ev):

   -19.7922  -9.1760  -7.6273  -6.8079   3.1862   3.9254   4.1583   5.5136

          k = 0.0000 0.3849 0.0000 (  2272 PWs)   bands (ev):

   -18.6734 -11.3778  -7.5416  -6.3579   3.1911   4.7577   5.5352   5.7145

          k = 0.0000 0.4811 0.0000 (  2282 PWs)   bands (ev):

   -17.2773 -13.4775  -8.0147  -4.9339   1.0547   5.7563   6.7879   7.5474

          k = 0.0000-0.5774 0.0000 (  2260 PWs)   bands (ev):

   -16.0106 -14.9866  -8.1771  -4.0884  -0.0443   5.6789   9.1608   9.2668

          k = 0.0833 0.1443 0.0000 (  2291 PWs)   bands (ev):

   -20.7657  -8.7723  -6.4772  -5.8126   1.8328   2.5771   2.8037   4.8082

          k = 0.0833 0.2406 0.0000 (  2281 PWs)   bands (ev):

   -20.1154  -8.1842  -8.0036  -6.8106   2.7357   3.4806   3.7071   5.6913

          k = 0.0833 0.3368 0.0000 (  2266 PWs)   bands (ev):

   -19.1507 -10.2554  -7.6968  -6.8867   4.0873   4.1972   4.8627   5.0613

          k = 0.0833 0.4330 0.0000 (  2279 PWs)   bands (ev):

   -17.8902 -12.3772  -8.3317  -5.5059   2.0029   5.8751   6.5711   6.6405

          k = 0.0833 0.5292 0.0000 (  2273 PWs)   bands (ev):

   -16.4096 -14.3193  -8.6602  -4.1953   0.2324   6.4154   8.1127   8.8491

          k = 0.1667 0.2887 0.0000 (  2273 PWs)   bands (ev):

   -19.3109  -9.5122  -8.1723  -7.0656   3.8630   4.6055   4.6633   4.8364

          k = 0.1667 0.3849 0.0000 (  2279 PWs)   bands (ev):

   -18.2030 -11.2383  -9.2282  -5.8115   2.7134   5.4348   6.1668   6.4133

          k = 0.1667 0.4811 0.0000 (  2273 PWs)   bands (ev):

   -16.8268 -13.1490  -9.8035  -4.3834   0.7990   7.4346   8.1159   8.2874

          k = 0.1667 0.5774 0.0000 (  2254 PWs)   bands (ev):

   -15.5898 -14.5864  -9.9882  -3.4897  -0.2704   8.2204   9.7568   9.7820

          k = 0.2500 0.4330 0.0000 (  2269 PWs)   bands (ev):

   -16.9746 -12.2713 -10.7123  -4.4676   1.0975   7.2156   7.8479   8.2093

          k = 0.2500 0.5292 0.0000 (  2253 PWs)   bands (ev):

   -15.5516 -13.6933 -11.4193  -3.0805  -0.4242   9.0909   9.3750  10.3763

          k = 0.3333 0.5774 0.0000 (  2259 PWs)   bands (ev):

   -14.3335 -14.3335 -12.3182  -1.7233  -1.7233   8.8747  11.1028  11.1034

     the Fermi energy is    -1.7865 ev

!    total energy              =     -23.91148231 Ry
     estimated scf accuracy    <       0.00000054 Ry
     smearing contrib. (-TS)   =      -0.00641115 Ry
     internal energy E=F+TS    =     -23.90507116 Ry

     The total energy is F=E-TS. E is the sum of the following terms:
     one-electron contribution =    -157.38017662 Ry
     hartree contribution      =      80.14803386 Ry
     xc contribution           =      -8.30257549 Ry
     ewald contribution        =      61.62964709 Ry

     convergence has been achieved in   9 iterations

     Writing all to output data dir ../tmp/gr.save/
 
     init_run     :      0.09s CPU      0.16s WALL (       1 calls)
     electrons    :      1.54s CPU      2.02s WALL (       1 calls)

     Called by init_run:
     wfcinit      :      0.03s CPU      0.04s WALL (       1 calls)
     potinit      :      0.00s CPU      0.01s WALL (       1 calls)
     hinit0       :      0.04s CPU      0.09s WALL (       1 calls)

     Called by electrons:
     c_bands      :      1.36s CPU      1.78s WALL (       9 calls)
     sum_band     :      0.14s CPU      0.20s WALL (       9 calls)
     v_of_rho     :      0.02s CPU      0.03s WALL (      10 calls)
     newd         :      0.01s CPU      0.01s WALL (      10 calls)
     mix_rho      :      0.00s CPU      0.00s WALL (       9 calls)

     Called by c_bands:
     init_us_2    :      0.01s CPU      0.02s WALL (     361 calls)
     init_us_2:cp :      0.01s CPU      0.02s WALL (     361 calls)
     cegterg      :      1.33s CPU      1.74s WALL (     171 calls)

     Called by *egterg:
     cdiaghg      :      0.08s CPU      0.10s WALL (    1488 calls)
     h_psi        :      1.12s CPU      1.47s WALL (    1507 calls)
     s_psi        :      0.01s CPU      0.02s WALL (    1507 calls)
     g_psi        :      0.00s CPU      0.01s WALL (    1317 calls)

     Called by h_psi:
     h_psi:calbec :      0.04s CPU      0.05s WALL (    1507 calls)
     vloc_psi     :      1.06s CPU      1.39s WALL (    1507 calls)
     add_vuspsi   :      0.01s CPU      0.02s WALL (    1507 calls)

     General routines
     calbec       :      0.05s CPU      0.06s WALL (    1678 calls)
     fft          :      0.03s CPU      0.09s WALL (     110 calls)
     ffts         :      0.00s CPU      0.00s WALL (       9 calls)
     fftw         :      1.12s CPU      1.48s WALL (   13562 calls)
 
     Parallel routines
 
     PWSCF        :      1.66s CPU      2.24s WALL

 
   This run was terminated on:   5:42:28   1Feb2022            

=------------------------------------------------------------------------------=
   JOB DONE.
=------------------------------------------------------------------------------=
