
     Program PWSCF v.7.0 starts on  1Feb2022 at  5:42:59 

     This program is part of the open-source Quantum ESPRESSO suite
     for quantum simulation of materials; please cite
         "P. Giannozzi et al., J. Phys.:Condens. Matter 21 395502 (2009);
         "P. Giannozzi et al., J. Phys.:Condens. Matter 29 465901 (2017);
         "P. Giannozzi et al., J. Chem. Phys. 152 154105 (2020);
          URL http://www.quantum-espresso.org", 
     in publications or presentations arising from this work. More details at
     http://www.quantum-espresso.org/quote

     Parallel version (MPI), running on     4 processors

     MPI processes distributed on     1 nodes
     R & G space division:  proc/nbgrp/npool/nimage =       4
     250633 MiB available memory on the printing compute node when the environment starts
 
     Waiting for input...
     Reading input from standard input

     Current dimensions of program PWSCF are:
     Max number of different atomic species (ntypx) = 10
     Max number of k-points (npk) =  40000
     Max angular momentum in pseudopotentials (lmaxx) =  4

     Subspace diagonalization in iterative solution of the eigenvalue problem:
     a serial algorithm will be used

 
     Parallelization info
     --------------------
     sticks:   dense  smooth     PW     G-vecs:    dense   smooth      PW
     Min          60      60     20                 4546     4546     852
     Max          61      61     22                 4565     4565     860
     Sum         241     241     85                18211    18211    3425
 
     Using Slab Decomposition
 


     bravais-lattice index     =            4
     lattice parameter (alat)  =       4.6561  a.u.
     unit-cell volume          =     532.1899 (a.u.)^3
     number of atoms/cell      =            2
     number of atomic types    =            1
     number of electrons       =         8.00
     number of Kohn-Sham states=            8
     kinetic-energy cutoff     =      40.0000  Ry
     charge density cutoff     =     160.0000  Ry
     scf convergence threshold =      1.0E-06
     mixing beta               =       0.7000
     number of iterations used =            8  plain     mixing
     Exchange-correlation= PBE
                           (   1   4   3   4   0   0   0)

     celldm(1)=   4.656107  celldm(2)=   0.000000  celldm(3)=   6.087896
     celldm(4)=   0.000000  celldm(5)=   0.000000  celldm(6)=   0.000000

     crystal axes: (cart. coord. in units of alat)
               a(1) = (   1.000000   0.000000   0.000000 )  
               a(2) = (  -0.500000   0.866025   0.000000 )  
               a(3) = (   0.000000   0.000000   6.087896 )  

     reciprocal axes: (cart. coord. in units 2 pi/alat)
               b(1) = (  1.000000  0.577350  0.000000 )  
               b(2) = (  0.000000  1.154701  0.000000 )  
               b(3) = (  0.000000  0.000000  0.164260 )  


     PseudoPot. # 1 for C  read from file:
     ../pseudo/C.pbe-n-rrkjus_psl.0.1.UPF
     MD5 check sum: 96a6a315177d77e6c95bf6fd3870f9e3
     Pseudo is Ultrasoft + core correction, Zval =  4.0
     Generated using &quot;atomic&quot; code by A. Dal Corso  v.6.3MaX
     Using radial grid of 1073 points,  4 beta functions with: 
                l(1) =   0
                l(2) =   0
                l(3) =   1
                l(4) =   1
     Q(r) pseudized with 0 coefficients 


     atomic species   valence    mass     pseudopotential
        C              4.00    12.01070     C ( 1.00)

     24 Sym. Ops., with inversion, found



   Cartesian axes

     site n.     atom                  positions (alat units)
         1           C   tau(   1) = (   0.0000000   0.5773503   3.0439478  )
         2           C   tau(   2) = (   0.5000000   0.2886751   3.0439478  )

     number of k points=    19  Methfessel-Paxton smearing, width (Ry)=  0.0100
                       cart. coord. in units 2pi/alat
        k(    1) = (   0.0000000   0.0000000   0.0000000), wk =   0.0138889
        k(    2) = (   0.0000000   0.0962250   0.0000000), wk =   0.0833333
        k(    3) = (   0.0000000   0.1924501   0.0000000), wk =   0.0833333
        k(    4) = (   0.0000000   0.2886751   0.0000000), wk =   0.0833333
        k(    5) = (   0.0000000   0.3849002   0.0000000), wk =   0.0833333
        k(    6) = (   0.0000000   0.4811252   0.0000000), wk =   0.0833333
        k(    7) = (   0.0000000  -0.5773503   0.0000000), wk =   0.0416667
        k(    8) = (   0.0833333   0.1443376   0.0000000), wk =   0.0833333
        k(    9) = (   0.0833333   0.2405626   0.0000000), wk =   0.1666667
        k(   10) = (   0.0833333   0.3367877   0.0000000), wk =   0.1666667
        k(   11) = (   0.0833333   0.4330127   0.0000000), wk =   0.1666667
        k(   12) = (   0.0833333   0.5292377   0.0000000), wk =   0.1666667
        k(   13) = (   0.1666667   0.2886751   0.0000000), wk =   0.0833333
        k(   14) = (   0.1666667   0.3849002   0.0000000), wk =   0.1666667
        k(   15) = (   0.1666667   0.4811252   0.0000000), wk =   0.1666667
        k(   16) = (   0.1666667   0.5773503   0.0000000), wk =   0.0833333
        k(   17) = (   0.2500000   0.4330127   0.0000000), wk =   0.0833333
        k(   18) = (   0.2500000   0.5292377   0.0000000), wk =   0.1666667
        k(   19) = (   0.3333333   0.5773503   0.0000000), wk =   0.0277778

     Dense  grid:    18211 G-vectors     FFT dimensions: (  20,  20, 120)

     Estimated max dynamical RAM per process >       7.66 MB

     Estimated total dynamical RAM >      30.63 MB

     Check: negative core charge=   -0.000016

     Initial potential from superposition of free atoms

     starting charge       7.9999, renormalised to       8.0000

     negative rho (up, down):  1.028E-04 0.000E+00
     Starting wfcs are    8 randomized atomic wfcs

     total cpu time spent up to now is        0.2 secs

     Self-consistent Calculation

     iteration #  1     ecut=    40.00 Ry     beta= 0.70
     Davidson diagonalization with overlap
     ethr =  1.00E-02,  avg # of iterations =  7.9

     negative rho (up, down):  1.911E-05 0.000E+00

     total cpu time spent up to now is        0.4 secs

     total energy              =     -23.85765763 Ry
     estimated scf accuracy    <       0.11482571 Ry

     iteration #  2     ecut=    40.00 Ry     beta= 0.70
     Davidson diagonalization with overlap
     ethr =  1.44E-03,  avg # of iterations =  4.3

     negative rho (up, down):  3.195E-04 0.000E+00

     total cpu time spent up to now is        0.6 secs

     total energy              =     -23.89591823 Ry
     estimated scf accuracy    <       0.01306367 Ry

     iteration #  3     ecut=    40.00 Ry     beta= 0.70
     Davidson diagonalization with overlap
     c_bands:  1 eigenvalues not converged
     c_bands:  1 eigenvalues not converged
     c_bands:  1 eigenvalues not converged
     ethr =  1.63E-04,  avg # of iterations = 15.3

     negative rho (up, down):  2.891E-04 0.000E+00

     total cpu time spent up to now is        1.0 secs

     total energy              =     -23.90797974 Ry
     estimated scf accuracy    <       0.00354876 Ry

     iteration #  4     ecut=    40.00 Ry     beta= 0.70
     Davidson diagonalization with overlap
     ethr =  4.44E-05,  avg # of iterations =  5.1

     negative rho (up, down):  4.753E-04 0.000E+00

     total cpu time spent up to now is        1.1 secs

     total energy              =     -23.90866342 Ry
     estimated scf accuracy    <       0.00033284 Ry

     iteration #  5     ecut=    40.00 Ry     beta= 0.70
     Davidson diagonalization with overlap
     c_bands:  1 eigenvalues not converged
     c_bands:  1 eigenvalues not converged
     c_bands:  1 eigenvalues not converged
     c_bands:  1 eigenvalues not converged
     c_bands:  1 eigenvalues not converged
     c_bands:  1 eigenvalues not converged
     c_bands:  1 eigenvalues not converged
     c_bands:  1 eigenvalues not converged
     ethr =  4.16E-06,  avg # of iterations = 13.8

     negative rho (up, down):  4.161E-04 0.000E+00

     total cpu time spent up to now is        1.5 secs

     total energy              =     -23.90897349 Ry
     estimated scf accuracy    <       0.00031041 Ry

     iteration #  6     ecut=    40.00 Ry     beta= 0.70
     Davidson diagonalization with overlap
     c_bands:  2 eigenvalues not converged
     c_bands:  1 eigenvalues not converged
     c_bands:  1 eigenvalues not converged
     ethr =  3.88E-06,  avg # of iterations =  6.9

     negative rho (up, down):  4.204E-04 0.000E+00

     total cpu time spent up to now is        1.6 secs

     total energy              =     -23.90901349 Ry
     estimated scf accuracy    <       0.00000278 Ry

     iteration #  7     ecut=    40.00 Ry     beta= 0.70
     Davidson diagonalization with overlap
     c_bands:  2 eigenvalues not converged
     c_bands:  1 eigenvalues not converged
     ethr =  3.48E-08,  avg # of iterations =  8.8

     negative rho (up, down):  4.190E-04 0.000E+00

     total cpu time spent up to now is        1.9 secs

     total energy              =     -23.90903911 Ry
     estimated scf accuracy    <       0.00000906 Ry

     iteration #  8     ecut=    40.00 Ry     beta= 0.70
     Davidson diagonalization with overlap
     ethr =  3.48E-08,  avg # of iterations =  3.2

     negative rho (up, down):  4.226E-04 0.000E+00

     total cpu time spent up to now is        2.1 secs

     End of self-consistent calculation

          k = 0.0000 0.0000 0.0000 (  2289 PWs)   bands (ev):

   -21.2476  -9.3501  -4.7878  -4.7878   1.1569   1.8989   2.1253   4.1397

          k = 0.0000 0.0962 0.0000 (  2286 PWs)   bands (ev):

   -21.0837  -9.1538  -5.4367  -5.1262   1.3828   2.1255   2.3510   4.3623

          k = 0.0000 0.1925 0.0000 (  2280 PWs)   bands (ev):

   -20.5936  -8.5703  -7.0712  -5.9188   2.0604   2.8047   3.0288   5.0298

          k = 0.0000 0.2887 0.0000 (  2278 PWs)   bands (ev):

   -19.7832  -9.1670  -7.6187  -6.7989   3.1882   3.9270   4.1568   5.5202

          k = 0.0000 0.3849 0.0000 (  2272 PWs)   bands (ev):

   -18.6644 -11.3688  -7.5326  -6.3494   3.1997   4.7601   5.5405   5.7137

          k = 0.0000 0.4811 0.0000 (  2282 PWs)   bands (ev):

   -17.2683 -13.4685  -8.0058  -4.9254   1.0633   5.7653   6.7906   7.5490

          k = 0.0000-0.5774 0.0000 (  2260 PWs)   bands (ev):

   -16.0016 -14.9775  -8.1682  -4.0799  -0.0357   5.6880   9.1648   9.2707

          k = 0.0833 0.1443 0.0000 (  2291 PWs)   bands (ev):

   -20.7567  -8.7638  -6.4682  -5.8036   1.8346   2.5785   2.8026   4.8080

          k = 0.0833 0.2406 0.0000 (  2281 PWs)   bands (ev):

   -20.1065  -8.1753  -7.9951  -6.8016   2.7377   3.4822   3.7060   5.6924

          k = 0.0833 0.3368 0.0000 (  2266 PWs)   bands (ev):

   -19.1417 -10.2464  -7.6878  -6.8782   4.0894   4.2056   4.8643   5.0591

          k = 0.0833 0.4330 0.0000 (  2279 PWs)   bands (ev):

   -17.8812 -12.3683  -8.3227  -5.4974   2.0116   5.8777   6.5803   6.6477

          k = 0.0833 0.5292 0.0000 (  2273 PWs)   bands (ev):

   -16.4007 -14.3103  -8.6512  -4.1868   0.2410   6.4244   8.1157   8.8511

          k = 0.1667 0.2887 0.0000 (  2273 PWs)   bands (ev):

   -19.3019  -9.5032  -8.1633  -7.0571   3.8652   4.6070   4.6720   4.8356

          k = 0.1667 0.3849 0.0000 (  2279 PWs)   bands (ev):

   -18.1940 -11.2294  -9.2192  -5.8030   2.7220   5.4372   6.1687   6.4118

          k = 0.1667 0.4811 0.0000 (  2273 PWs)   bands (ev):

   -16.8178 -13.1400  -9.7945  -4.3749   0.8076   7.4375   8.1192   8.3002

          k = 0.1667 0.5774 0.0000 (  2254 PWs)   bands (ev):

   -15.5809 -14.5774  -9.9792  -3.4812  -0.2618   8.2294   9.7607   9.7944

          k = 0.2500 0.4330 0.0000 (  2269 PWs)   bands (ev):

   -16.9657 -12.2624 -10.7032  -4.4591   1.1061   7.2184   7.8501   8.2063

          k = 0.2500 0.5292 0.0000 (  2253 PWs)   bands (ev):

   -15.5426 -13.6844 -11.4102  -3.0720  -0.4157   9.0982   9.3788  10.3803

          k = 0.3333 0.5774 0.0000 (  2259 PWs)   bands (ev):

   -14.3246 -14.3246 -12.3091  -1.7147  -1.7147   8.8830  11.1091  11.1100

     the Fermi energy is    -1.7147 ev

!    total energy              =     -23.90903957 Ry
     estimated scf accuracy    <       0.00000058 Ry
     smearing contrib. (-TS)   =      -0.00007836 Ry
     internal energy E=F+TS    =     -23.90896121 Ry

     The total energy is F=E-TS. E is the sum of the following terms:
     one-electron contribution =    -157.38895546 Ry
     hartree contribution      =      80.15308274 Ry
     xc contribution           =      -8.30273558 Ry
     ewald contribution        =      61.62964709 Ry

     convergence has been achieved in   8 iterations

     Writing all to output data dir ../tmp/gr.save/
 
     init_run     :      0.08s CPU      0.14s WALL (       1 calls)
     electrons    :      1.43s CPU      1.87s WALL (       1 calls)

     Called by init_run:
     wfcinit      :      0.03s CPU      0.04s WALL (       1 calls)
     potinit      :      0.01s CPU      0.01s WALL (       1 calls)
     hinit0       :      0.03s CPU      0.08s WALL (       1 calls)

     Called by electrons:
     c_bands      :      1.28s CPU      1.66s WALL (       8 calls)
     sum_band     :      0.13s CPU      0.17s WALL (       8 calls)
     v_of_rho     :      0.02s CPU      0.03s WALL (       9 calls)
     newd         :      0.01s CPU      0.01s WALL (       9 calls)
     mix_rho      :      0.00s CPU      0.00s WALL (       8 calls)

     Called by c_bands:
     init_us_2    :      0.01s CPU      0.01s WALL (     323 calls)
     init_us_2:cp :      0.01s CPU      0.01s WALL (     323 calls)
     cegterg      :      1.24s CPU      1.63s WALL (     152 calls)

     Called by *egterg:
     cdiaghg      :      0.07s CPU      0.10s WALL (    1394 calls)
     h_psi        :      1.05s CPU      1.37s WALL (    1413 calls)
     s_psi        :      0.01s CPU      0.02s WALL (    1413 calls)
     g_psi        :      0.00s CPU      0.01s WALL (    1242 calls)

     Called by h_psi:
     h_psi:calbec :      0.04s CPU      0.05s WALL (    1413 calls)
     vloc_psi     :      0.99s CPU      1.30s WALL (    1413 calls)
     add_vuspsi   :      0.01s CPU      0.02s WALL (    1413 calls)

     General routines
     calbec       :      0.04s CPU      0.06s WALL (    1565 calls)
     fft          :      0.02s CPU      0.07s WALL (      99 calls)
     ffts         :      0.00s CPU      0.00s WALL (       8 calls)
     fftw         :      1.05s CPU      1.37s WALL (   12678 calls)
 
     Parallel routines
 
     PWSCF        :      1.56s CPU      2.08s WALL

 
   This run was terminated on:   5:43: 1   1Feb2022            

=------------------------------------------------------------------------------=
   JOB DONE.
=------------------------------------------------------------------------------=
