
     Program PHONON v.7.0 starts on  6Feb2022 at  6:49:47 

     This program is part of the open-source Quantum ESPRESSO suite
     for quantum simulation of materials; please cite
         "P. Giannozzi et al., J. Phys.:Condens. Matter 21 395502 (2009);
         "P. Giannozzi et al., J. Phys.:Condens. Matter 29 465901 (2017);
         "P. Giannozzi et al., J. Chem. Phys. 152 154105 (2020);
          URL http://www.quantum-espresso.org", 
     in publications or presentations arising from this work. More details at
     http://www.quantum-espresso.org/quote

     Parallel version (MPI), running on     4 processors

     MPI processes distributed on     1 nodes
     R & G space division:  proc/nbgrp/npool/nimage =       4
     21478 MiB available memory on the printing compute node when the environment starts
 
     Waiting for input...
     Reading input from standard input

     Reading xml data from directory:

     ../tmp/gr.save/

     IMPORTANT: XC functional enforced from input :
     Exchange-correlation= PBE
                           (   1   4   3   4   0   0   0)
     Any further DFT definition will be discarded
     Please, verify this is what you really want

 
     Parallelization info
     --------------------
     sticks:   dense  smooth     PW     G-vecs:    dense   smooth      PW
     Min         118     118     37                12812    12812    2155
     Max         119     119     38                12835    12835    2162
     Sum         475     475    151                51311    51311    8639
 
     Using Slab Decomposition
 
 ----2D----2D----2D----2D----2D----2D----2D----2D----2D----2D----2D----2D
  The code is running with the 2D cutoff
  Please refer to:
  Sohier, T., Calandra, M., & Mauri, F. (2017), 
  Density functional perturbation theory for gated two-dimensional heterostructu
 res:
  Theoretical developments and application to flexural phonons in graphene.
  Physical Review B, 96(7), 75448. https://doi.org/10.1103/PhysRevB.96.075448
 ----2D----2D----2D----2D----2D----2D----2D----2D----2D----2D----2D----2D

     Check: negative core charge=   -0.000001

     negative rho (up, down):  2.304E-05 0.000E+00
     Reading collected, re-writing distributed wavefunctions


     Dynamical matrices for ( 6, 6, 1)  uniform grid of q-points
     (   7 q-points):
       N         xq(1)         xq(2)         xq(3) 
       1   0.000000000   0.000000000   0.000000000
       2   0.000000000   0.192450090   0.000000000
       3   0.000000000   0.384900179   0.000000000
       4   0.000000000  -0.577350269   0.000000000
       5   0.166666667   0.288675135   0.000000000
       6   0.166666667   0.481125224   0.000000000
       7   0.333333333   0.577350269   0.000000000

     Calculation of q =    0.0000000   0.0000000   0.0000000

     phonon calc.                                                               

     bravais-lattice index     =            4
     lattice parameter (alat)  =       4.6561  a.u.
     unit-cell volume          =     532.1899 (a.u.)^3
     number of atoms/cell      =            2
     number of atomic types    =            1
     kinetic-energy cut-off    =      80.0000  Ry
     charge density cut-off    =     320.0000  Ry
     convergence threshold     =      1.0E-14
     beta                      =       0.7000
     number of iterations used =            4
     Exchange-correlation= PBE
                           (   1   4   3   4   0   0   0)


     celldm(1)=    4.65611  celldm(2)=    0.00000  celldm(3)=    6.08790
     celldm(4)=    0.00000  celldm(5)=    0.00000  celldm(6)=    0.00000

     crystal axes: (cart. coord. in units of alat)
               a(1) = (  1.0000  0.0000  0.0000 )  
               a(2) = ( -0.5000  0.8660  0.0000 )  
               a(3) = (  0.0000  0.0000  6.0879 )  

     reciprocal axes: (cart. coord. in units 2 pi/alat)
               b(1) = (  1.0000  0.5774  0.0000 )  
               b(2) = (  0.0000  1.1547  0.0000 )  
               b(3) = (  0.0000  0.0000  0.1643 )  


     Atoms inside the unit cell: 

     Cartesian axes

     site n.  atom      mass           positions (alat units)
        1     C   12.0107   tau(    1) = (    0.00000    0.57735    3.04395  )
        2     C   12.0107   tau(    2) = (    0.50000    0.28868    3.04395  )

     Computing dynamical matrix for 
                    q = (   0.0000000   0.0000000   0.0000000 )
 
     25 Sym.Ops. (with q -> -q+G )


     G cutoff =  175.7260  (  12829 G-vectors)     FFT grid: ( 27, 27,162)

     number of k points=    19  Marzari-Vanderbilt smearing, width (Ry)=  0.0200

     PseudoPot. # 1 for C  read from file:
     ../pseudo/C.pbe-n-rrkjus_psl.0.1.UPF
     MD5 check sum: 96a6a315177d77e6c95bf6fd3870f9e3
     Pseudo is Ultrasoft + core correction, Zval =  4.0
     Generated using &quot;atomic&quot; code by A. Dal Corso  v.6.3MaX
     Using radial grid of 1073 points,  4 beta functions with: 
                l(1) =   0
                l(2) =   0
                l(3) =   1
                l(4) =   1
     Q(r) pseudized with 0 coefficients 


     Mode symmetry, D_6h(6/mmm) point group:


     Atomic displacements:
     There are    4 irreducible representations

     Representation     1      1 modes -  To be done

     Representation     2      2 modes -  To be done

     Representation     3      1 modes -  To be done

     Representation     4      2 modes -  To be done



     Alpha used in Ewald sum =   2.8000

     negative rho (up, down):  2.304E-05 0.000E+00
     PHONON       :      0.62s CPU      0.69s WALL



     Representation #   1 mode #   1

     Self-consistent Calculation
 
     Pert. #  1: Fermi energy shift (Ry) =     1.4117E-22     0.0000E+00

      iter #   1 total cpu time :     1.1 secs   av.it.:   5.8
      thresh= 1.000E-02 alpha_mix =  0.700 |ddv_scf|^2 =  2.706E-07
 
     Pert. #  1: Fermi energy shift (Ry) =     5.6469E-22     0.0000E+00

      iter #   2 total cpu time :     1.6 secs   av.it.:  11.9
      thresh= 5.202E-05 alpha_mix =  0.700 |ddv_scf|^2 =  2.416E-08
 
     Pert. #  1: Fermi energy shift (Ry) =    -2.8234E-22     0.0000E+00

      iter #   3 total cpu time :     2.0 secs   av.it.:  10.4
      thresh= 1.554E-05 alpha_mix =  0.700 |ddv_scf|^2 =  5.584E-12
 
     Pert. #  1: Fermi energy shift (Ry) =    -2.8234E-22     0.0000E+00

      iter #   4 total cpu time :     2.6 secs   av.it.:  14.2
      thresh= 2.363E-07 alpha_mix =  0.700 |ddv_scf|^2 =  6.398E-14
 
     Pert. #  1: Fermi energy shift (Ry) =    -2.8234E-22     0.0000E+00

      iter #   5 total cpu time :     3.1 secs   av.it.:  12.1
      thresh= 2.529E-08 alpha_mix =  0.700 |ddv_scf|^2 =  7.925E-16

     End of self-consistent calculation

     Convergence has been achieved 


     Representation #   2 modes #   2   3

     Self-consistent Calculation
 
     Pert. #  1: Fermi energy shift (Ry) =     2.7105E-20    -6.2693E-38
     Pert. #  2: Fermi energy shift (Ry) =     1.2649E-19     5.4856E-38

      iter #   1 total cpu time :     4.0 secs   av.it.:   8.4
      thresh= 1.000E-02 alpha_mix =  0.700 |ddv_scf|^2 =  5.881E-08
 
     Pert. #  1: Fermi energy shift (Ry) =     9.8821E-22    -6.2693E-38
     Pert. #  2: Fermi energy shift (Ry) =     1.6941E-21     4.5061E-38

      iter #   2 total cpu time :     5.1 secs   av.it.:  15.8
      thresh= 2.425E-05 alpha_mix =  0.700 |ddv_scf|^2 =  2.763E-09
 
     Pert. #  1: Fermi energy shift (Ry) =     2.8234E-22    -7.8366E-38
     Pert. #  2: Fermi energy shift (Ry) =     1.1647E-21     5.4856E-38

      iter #   3 total cpu time :     6.2 secs   av.it.:  12.9
      thresh= 5.257E-06 alpha_mix =  0.700 |ddv_scf|^2 =  9.874E-11
 
     Pert. #  1: Fermi energy shift (Ry) =    -7.0586E-23    -7.8366E-38
     Pert. #  2: Fermi energy shift (Ry) =     9.8821E-22     5.4856E-38

      iter #   4 total cpu time :     7.2 secs   av.it.:  13.2
      thresh= 9.937E-07 alpha_mix =  0.700 |ddv_scf|^2 =  6.839E-15

     End of self-consistent calculation

     Convergence has been achieved 


     Representation #   3 mode #   4

     Self-consistent Calculation
 
     Pert. #  1: Fermi energy shift (Ry) =    -1.1294E-21     0.0000E+00

      iter #   1 total cpu time :     7.8 secs   av.it.:   9.0
      thresh= 1.000E-02 alpha_mix =  0.700 |ddv_scf|^2 =  2.771E-04
 
     Pert. #  1: Fermi energy shift (Ry) =     0.0000E+00     0.0000E+00

      iter #   2 total cpu time :     8.3 secs   av.it.:  12.4
      thresh= 1.665E-03 alpha_mix =  0.700 |ddv_scf|^2 =  4.540E-04
 
     Pert. #  1: Fermi energy shift (Ry) =     0.0000E+00     0.0000E+00

      iter #   3 total cpu time :     8.8 secs   av.it.:  11.1
      thresh= 2.131E-03 alpha_mix =  0.700 |ddv_scf|^2 =  2.337E-07
 
     Pert. #  1: Fermi energy shift (Ry) =     0.0000E+00     0.0000E+00

      iter #   4 total cpu time :     9.3 secs   av.it.:  11.2
      thresh= 4.834E-05 alpha_mix =  0.700 |ddv_scf|^2 =  6.896E-10
 
     Pert. #  1: Fermi energy shift (Ry) =    -5.6469E-22     0.0000E+00

      iter #   5 total cpu time :     9.8 secs   av.it.:  11.7
      thresh= 2.626E-06 alpha_mix =  0.700 |ddv_scf|^2 =  9.730E-11
 
     Pert. #  1: Fermi energy shift (Ry) =     0.0000E+00     0.0000E+00

      iter #   6 total cpu time :    10.3 secs   av.it.:  11.1
      thresh= 9.864E-07 alpha_mix =  0.700 |ddv_scf|^2 =  1.976E-13
 
     Pert. #  1: Fermi energy shift (Ry) =    -5.6469E-22     0.0000E+00

      iter #   7 total cpu time :    10.8 secs   av.it.:  11.9
      thresh= 4.445E-08 alpha_mix =  0.700 |ddv_scf|^2 =  3.559E-15

     End of self-consistent calculation

     Convergence has been achieved 


     Representation #   4 modes #   5   6

     Self-consistent Calculation
 
     Pert. #  1: Fermi energy shift (Ry) =    -2.1176E-22     2.8086E-35
     Pert. #  2: Fermi energy shift (Ry) =     0.0000E+00    -1.4043E-35

      iter #   1 total cpu time :    11.6 secs   av.it.:   7.9
      thresh= 1.000E-02 alpha_mix =  0.700 |ddv_scf|^2 =  3.262E-08
 
     Pert. #  1: Fermi energy shift (Ry) =     1.0588E-22    -1.0031E-36
     Pert. #  2: Fermi energy shift (Ry) =    -1.4117E-22     1.1598E-36

      iter #   2 total cpu time :    12.7 secs   av.it.:  14.9
      thresh= 1.806E-05 alpha_mix =  0.700 |ddv_scf|^2 =  2.544E-09
 
     Pert. #  1: Fermi energy shift (Ry) =     7.0586E-23    -7.5232E-37
     Pert. #  2: Fermi energy shift (Ry) =    -1.4117E-22     1.4106E-36

      iter #   3 total cpu time :    13.8 secs   av.it.:  13.4
      thresh= 5.044E-06 alpha_mix =  0.700 |ddv_scf|^2 =  8.957E-12
 
     Pert. #  1: Fermi energy shift (Ry) =     2.1176E-22    -7.5232E-37
     Pert. #  2: Fermi energy shift (Ry) =    -3.5293E-23     1.4106E-36

      iter #   4 total cpu time :    15.0 secs   av.it.:  14.6
      thresh= 2.993E-07 alpha_mix =  0.700 |ddv_scf|^2 =  9.570E-15

     End of self-consistent calculation

     Convergence has been achieved 
 
     Number of q in the star =    1
     List of q in the star:
          1   0.000000000   0.000000000   0.000000000

     Diagonalizing the dynamical matrix

     q = (    0.000000000   0.000000000   0.000000000 ) 

 **************************************************************************
     freq (    1) =       1.138365 [THz] =      37.971757 [cm-1]
     freq (    2) =       1.138365 [THz] =      37.971757 [cm-1]
     freq (    3) =       1.370646 [THz] =      45.719825 [cm-1]
     freq (    4) =      26.296775 [THz] =     877.166004 [cm-1]
     freq (    5) =      44.551556 [THz] =    1486.079947 [cm-1]
     freq (    6) =      44.551556 [THz] =    1486.079947 [cm-1]
 **************************************************************************

     Mode symmetry, D_6h(6/mmm) point group:

     freq (   1-   2) =         38.0  [cm-1]   --> E_1u            I  
     freq (   3-   3) =         45.7  [cm-1]   --> A_2u            I  
     freq (   4-   4) =        877.2  [cm-1]   --> B_1g               
     freq (   5-   6) =       1486.1  [cm-1]   --> E_2g            R  

     Calculation of q =    0.0000000   0.1924501   0.0000000

     Subspace diagonalization in iterative solution of the eigenvalue problem:
     a serial algorithm will be used

 
     Parallelization info
     --------------------
     sticks:   dense  smooth     PW     G-vecs:    dense   smooth      PW
     Min         118     118     37                12812    12812    2295
     Max         119     119     38                12835    12835    2316
     Sum         475     475    151                51311    51311    9241
 
     Using Slab Decomposition
 

     Title: 
     phonon calc.                                                               


     bravais-lattice index     =            4
     lattice parameter (alat)  =       4.6561  a.u.
     unit-cell volume          =     532.1899 (a.u.)^3
     number of atoms/cell      =            2
     number of atomic types    =            1
     number of electrons       =         8.00
     number of Kohn-Sham states=            8
     kinetic-energy cutoff     =      80.0000  Ry
     charge density cutoff     =     320.0000  Ry
     Exchange-correlation= PBE
                           (   1   4   3   4   0   0   0)

     celldm(1)=   4.656107  celldm(2)=   0.000000  celldm(3)=   6.087896
     celldm(4)=   0.000000  celldm(5)=   0.000000  celldm(6)=   0.000000

     crystal axes: (cart. coord. in units of alat)
               a(1) = (   1.000000   0.000000   0.000000 )  
               a(2) = (  -0.500000   0.866025   0.000000 )  
               a(3) = (   0.000000   0.000000   6.087896 )  

     reciprocal axes: (cart. coord. in units 2 pi/alat)
               b(1) = (  1.000000  0.577350  0.000000 )  
               b(2) = (  0.000000  1.154701  0.000000 )  
               b(3) = (  0.000000  0.000000  0.164260 )  


     PseudoPot. # 1 for C  read from file:
     ../pseudo/C.pbe-n-rrkjus_psl.0.1.UPF
     MD5 check sum: 96a6a315177d77e6c95bf6fd3870f9e3
     Pseudo is Ultrasoft + core correction, Zval =  4.0
     Generated using &quot;atomic&quot; code by A. Dal Corso  v.6.3MaX
     Using radial grid of 1073 points,  4 beta functions with: 
                l(1) =   0
                l(2) =   0
                l(3) =   1
                l(4) =   1
     Q(r) pseudized with 0 coefficients 


     atomic species   valence    mass     pseudopotential
        C              4.00    12.01070     C ( 1.00)

     24 Sym. Ops., with inversion, found



   Cartesian axes

     site n.     atom                  positions (alat units)
         1           C   tau(   1) = (   0.0000000   0.5773503   3.0439478  )
         2           C   tau(   2) = (   0.5000000   0.2886751   3.0439478  )

     number of k points=   156  Marzari-Vanderbilt smearing, width (Ry)=  0.0200

     Number of k-points >= 100: set verbosity='high' to print them.

     Dense  grid:    51311 G-vectors     FFT dimensions: (  27,  27, 162)

     Estimated max dynamical RAM per process >      13.66 MB

     Estimated total dynamical RAM >      54.65 MB
 ----2D----2D----2D----2D----2D----2D----2D----2D----2D----2D----2D----2D
  The code is running with the 2D cutoff
  Please refer to:
  Sohier, T., Calandra, M., & Mauri, F. (2017), 
  Density functional perturbation theory for gated two-dimensional heterostructu
 res:
  Theoretical developments and application to flexural phonons in graphene.
  Physical Review B, 96(7), 75448. https://doi.org/10.1103/PhysRevB.96.075448
 ----2D----2D----2D----2D----2D----2D----2D----2D----2D----2D----2D----2D

     Check: negative core charge=   -0.000001

     The potential is recalculated from file :
     ../tmp/_ph0/gr.save/charge-density


     negative rho (up, down):  2.304E-05 0.000E+00
     Starting wfcs are    8 atomic wfcs

     Band Structure Calculation
     Davidson diagonalization with overlap

     ethr =  1.25E-10,  avg # of iterations = 37.6

     total cpu time spent up to now is       10.7 secs

     End of band structure calculation

     Number of k-points >= 100: set verbosity='high' to print the bands.

     the Fermi energy is    -4.1997 ev

     Writing config to output data dir ../tmp/_ph0/gr.save/

     phonon calc.                                                               

     bravais-lattice index     =            4
     lattice parameter (alat)  =       4.6561  a.u.
     unit-cell volume          =     532.1899 (a.u.)^3
     number of atoms/cell      =            2
     number of atomic types    =            1
     kinetic-energy cut-off    =      80.0000  Ry
     charge density cut-off    =     320.0000  Ry
     convergence threshold     =      1.0E-14
     beta                      =       0.7000
     number of iterations used =            4
     Exchange-correlation= PBE
                           (   1   4   3   4   0   0   0)


     celldm(1)=    4.65611  celldm(2)=    0.00000  celldm(3)=    6.08790
     celldm(4)=    0.00000  celldm(5)=    0.00000  celldm(6)=    0.00000

     crystal axes: (cart. coord. in units of alat)
               a(1) = (  1.0000  0.0000  0.0000 )  
               a(2) = ( -0.5000  0.8660  0.0000 )  
               a(3) = (  0.0000  0.0000  6.0879 )  

     reciprocal axes: (cart. coord. in units 2 pi/alat)
               b(1) = (  1.0000  0.5774  0.0000 )  
               b(2) = (  0.0000  1.1547  0.0000 )  
               b(3) = (  0.0000  0.0000  0.1643 )  


     Atoms inside the unit cell: 

     Cartesian axes

     site n.  atom      mass           positions (alat units)
        1     C   12.0107   tau(    1) = (    0.00000    0.57735    3.04395  )
        2     C   12.0107   tau(    2) = (    0.50000    0.28868    3.04395  )

     Computing dynamical matrix for 
                    q = (   0.0000000   0.1924501   0.0000000 )
 
      4 Sym.Ops. (no q -> -q+G )


     G cutoff =  175.7260  (  12829 G-vectors)     FFT grid: ( 27, 27,162)

     number of k points=   156  Marzari-Vanderbilt smearing, width (Ry)=  0.0200

     PseudoPot. # 1 for C  read from file:
     ../pseudo/C.pbe-n-rrkjus_psl.0.1.UPF
     MD5 check sum: 96a6a315177d77e6c95bf6fd3870f9e3
     Pseudo is Ultrasoft + core correction, Zval =  4.0
     Generated using &quot;atomic&quot; code by A. Dal Corso  v.6.3MaX
     Using radial grid of 1073 points,  4 beta functions with: 
                l(1) =   0
                l(2) =   0
                l(3) =   1
                l(4) =   1
     Q(r) pseudized with 0 coefficients 


     Mode symmetry, C_2v (mm2)  point group:


     Atomic displacements:
     There are    6 irreducible representations

     Representation     1      1 modes -  To be done

     Representation     2      1 modes -  To be done

     Representation     3      1 modes -  To be done

     Representation     4      1 modes -  To be done

     Representation     5      1 modes -  To be done

     Representation     6      1 modes -  To be done



     Alpha used in Ewald sum =   2.8000

     negative rho (up, down):  2.304E-05 0.000E+00
     PHONON       :     26.29s CPU     26.93s WALL



     Representation #   1 mode #   1

     Self-consistent Calculation

      iter #   1 total cpu time :    28.5 secs   av.it.:   9.1
      thresh= 1.000E-02 alpha_mix =  0.700 |ddv_scf|^2 =  4.475E-05

      iter #   2 total cpu time :    30.4 secs   av.it.:  13.3
      thresh= 6.690E-04 alpha_mix =  0.700 |ddv_scf|^2 =  2.845E-04

      iter #   3 total cpu time :    32.2 secs   av.it.:  11.6
      thresh= 1.687E-03 alpha_mix =  0.700 |ddv_scf|^2 =  1.942E-08

      iter #   4 total cpu time :    34.3 secs   av.it.:  14.9
      thresh= 1.394E-05 alpha_mix =  0.700 |ddv_scf|^2 =  8.221E-09

      iter #   5 total cpu time :    36.4 secs   av.it.:  14.1
      thresh= 9.067E-06 alpha_mix =  0.700 |ddv_scf|^2 =  2.190E-10

      iter #   6 total cpu time :    38.5 secs   av.it.:  14.4
      thresh= 1.480E-06 alpha_mix =  0.700 |ddv_scf|^2 =  8.535E-12

      iter #   7 total cpu time :    40.3 secs   av.it.:  12.4
      thresh= 2.921E-07 alpha_mix =  0.700 |ddv_scf|^2 =  2.381E-12

      iter #   8 total cpu time :    42.2 secs   av.it.:  12.6
      thresh= 1.543E-07 alpha_mix =  0.700 |ddv_scf|^2 =  5.392E-13

      iter #   9 total cpu time :    44.1 secs   av.it.:  12.6
      thresh= 7.343E-08 alpha_mix =  0.700 |ddv_scf|^2 =  4.519E-16

     End of self-consistent calculation

     Convergence has been achieved 


     Representation #   2 mode #   2

     Self-consistent Calculation

      iter #   1 total cpu time :    45.7 secs   av.it.:   9.1
      thresh= 1.000E-02 alpha_mix =  0.700 |ddv_scf|^2 =  4.475E-05

      iter #   2 total cpu time :    47.8 secs   av.it.:  13.3
      thresh= 6.690E-04 alpha_mix =  0.700 |ddv_scf|^2 =  2.845E-04

      iter #   3 total cpu time :    49.6 secs   av.it.:  11.6
      thresh= 1.687E-03 alpha_mix =  0.700 |ddv_scf|^2 =  1.942E-08

      iter #   4 total cpu time :    51.7 secs   av.it.:  14.9
      thresh= 1.394E-05 alpha_mix =  0.700 |ddv_scf|^2 =  8.221E-09

      iter #   5 total cpu time :    53.9 secs   av.it.:  14.1
      thresh= 9.067E-06 alpha_mix =  0.700 |ddv_scf|^2 =  2.191E-10

      iter #   6 total cpu time :    56.0 secs   av.it.:  14.4
      thresh= 1.480E-06 alpha_mix =  0.700 |ddv_scf|^2 =  8.566E-12

      iter #   7 total cpu time :    57.9 secs   av.it.:  12.4
      thresh= 2.927E-07 alpha_mix =  0.700 |ddv_scf|^2 =  2.586E-12

      iter #   8 total cpu time :    59.8 secs   av.it.:  12.6
      thresh= 1.608E-07 alpha_mix =  0.700 |ddv_scf|^2 =  5.332E-13

      iter #   9 total cpu time :    61.7 secs   av.it.:  12.6
      thresh= 7.302E-08 alpha_mix =  0.700 |ddv_scf|^2 =  4.603E-16

     End of self-consistent calculation

     Convergence has been achieved 


     Representation #   3 mode #   3

     Self-consistent Calculation

      iter #   1 total cpu time :    63.3 secs   av.it.:   8.4
      thresh= 1.000E-02 alpha_mix =  0.700 |ddv_scf|^2 =  2.064E-07

      iter #   2 total cpu time :    65.4 secs   av.it.:  14.3
      thresh= 4.543E-05 alpha_mix =  0.700 |ddv_scf|^2 =  1.119E-08

      iter #   3 total cpu time :    67.4 secs   av.it.:  12.6
      thresh= 1.058E-05 alpha_mix =  0.700 |ddv_scf|^2 =  3.566E-10

      iter #   4 total cpu time :    69.3 secs   av.it.:  12.6
      thresh= 1.888E-06 alpha_mix =  0.700 |ddv_scf|^2 =  1.106E-13

      iter #   5 total cpu time :    71.5 secs   av.it.:  15.3
      thresh= 3.325E-08 alpha_mix =  0.700 |ddv_scf|^2 =  2.063E-15

     End of self-consistent calculation

     Convergence has been achieved 


     Representation #   4 mode #   4

     Self-consistent Calculation

      iter #   1 total cpu time :    73.1 secs   av.it.:   8.4
      thresh= 1.000E-02 alpha_mix =  0.700 |ddv_scf|^2 =  2.064E-07

      iter #   2 total cpu time :    75.3 secs   av.it.:  14.3
      thresh= 4.543E-05 alpha_mix =  0.700 |ddv_scf|^2 =  1.119E-08

      iter #   3 total cpu time :    77.2 secs   av.it.:  12.6
      thresh= 1.058E-05 alpha_mix =  0.700 |ddv_scf|^2 =  3.566E-10

      iter #   4 total cpu time :    79.1 secs   av.it.:  12.6
      thresh= 1.888E-06 alpha_mix =  0.700 |ddv_scf|^2 =  1.106E-13

      iter #   5 total cpu time :    81.4 secs   av.it.:  15.3
      thresh= 3.325E-08 alpha_mix =  0.700 |ddv_scf|^2 =  2.063E-15

     End of self-consistent calculation

     Convergence has been achieved 


     Representation #   5 mode #   5

     Self-consistent Calculation

      iter #   1 total cpu time :    83.0 secs   av.it.:   8.3
      thresh= 1.000E-02 alpha_mix =  0.700 |ddv_scf|^2 =  5.235E-06

      iter #   2 total cpu time :    85.1 secs   av.it.:  13.7
      thresh= 2.288E-04 alpha_mix =  0.700 |ddv_scf|^2 =  1.766E-06

      iter #   3 total cpu time :    87.1 secs   av.it.:  13.5
      thresh= 1.329E-04 alpha_mix =  0.700 |ddv_scf|^2 =  8.550E-09

      iter #   4 total cpu time :    89.0 secs   av.it.:  12.2
      thresh= 9.247E-06 alpha_mix =  0.700 |ddv_scf|^2 =  3.074E-12

      iter #   5 total cpu time :    91.2 secs   av.it.:  14.6
      thresh= 1.753E-07 alpha_mix =  0.700 |ddv_scf|^2 =  1.373E-13

      iter #   6 total cpu time :    93.1 secs   av.it.:  12.7
      thresh= 3.705E-08 alpha_mix =  0.700 |ddv_scf|^2 =  1.629E-15

     End of self-consistent calculation

     Convergence has been achieved 


     Representation #   6 mode #   6

     Self-consistent Calculation

      iter #   1 total cpu time :    94.6 secs   av.it.:   8.3
      thresh= 1.000E-02 alpha_mix =  0.700 |ddv_scf|^2 =  5.235E-06

      iter #   2 total cpu time :    96.7 secs   av.it.:  13.7
      thresh= 2.288E-04 alpha_mix =  0.700 |ddv_scf|^2 =  1.766E-06

      iter #   3 total cpu time :    98.8 secs   av.it.:  13.5
      thresh= 1.329E-04 alpha_mix =  0.700 |ddv_scf|^2 =  8.550E-09

      iter #   4 total cpu time :   100.7 secs   av.it.:  12.3
      thresh= 9.247E-06 alpha_mix =  0.700 |ddv_scf|^2 =  3.075E-12

      iter #   5 total cpu time :   102.9 secs   av.it.:  14.6
      thresh= 1.753E-07 alpha_mix =  0.700 |ddv_scf|^2 =  1.374E-13

      iter #   6 total cpu time :   104.9 secs   av.it.:  12.7
      thresh= 3.707E-08 alpha_mix =  0.700 |ddv_scf|^2 =  1.629E-15

     End of self-consistent calculation

     Convergence has been achieved 
 
     Number of q in the star =    6
     List of q in the star:
          1   0.000000000   0.192450090   0.000000000
          2   0.000000000  -0.192450090   0.000000000
          3  -0.166666667   0.096225045   0.000000000
          4  -0.166666667  -0.096225045   0.000000000
          5   0.166666667  -0.096225045   0.000000000
          6   0.166666667   0.096225045   0.000000000

     Diagonalizing the dynamical matrix

     q = (    0.000000000   0.192450090   0.000000000 ) 

 **************************************************************************
     freq (    1) =       2.630407 [THz] =      87.740930 [cm-1]
     freq (    2) =      10.046492 [THz] =     335.114914 [cm-1]
     freq (    3) =      16.339505 [THz] =     545.027211 [cm-1]
     freq (    4) =      25.639869 [THz] =     855.253969 [cm-1]
     freq (    5) =      45.236967 [THz] =    1508.942796 [cm-1]
     freq (    6) =      47.975893 [THz] =    1600.303521 [cm-1]
 **************************************************************************

     Mode symmetry, C_2v (mm2)  point group:

     freq (   1-   1) =         87.7  [cm-1]   --> B_2  D_4  S_4      
     freq (   2-   2) =        335.1  [cm-1]   --> B_1  D_3  S_3      
     freq (   3-   3) =        545.0  [cm-1]   --> A_1  D_1  S_1      
     freq (   4-   4) =        855.3  [cm-1]   --> B_2  D_4  S_4      
     freq (   5-   5) =       1508.9  [cm-1]   --> B_1  D_3  S_3      
     freq (   6-   6) =       1600.3  [cm-1]   --> A_1  D_1  S_1      

     Calculation of q =    0.0000000   0.3849002   0.0000000
 
     Parallelization info
     --------------------
     sticks:   dense  smooth     PW     G-vecs:    dense   smooth      PW
     Min         118     118     40                12812    12812    2482
     Max         119     119     42                12835    12835    2493
     Sum         475     475    163                51311    51311    9951
 
     Using Slab Decomposition
 

     Title: 
     phonon calc.                                                               


     bravais-lattice index     =            4
     lattice parameter (alat)  =       4.6561  a.u.
     unit-cell volume          =     532.1899 (a.u.)^3
     number of atoms/cell      =            2
     number of atomic types    =            1
     number of electrons       =         8.00
     number of Kohn-Sham states=            8
     kinetic-energy cutoff     =      80.0000  Ry
     charge density cutoff     =     320.0000  Ry
     Exchange-correlation= PBE
                           (   1   4   3   4   0   0   0)

     celldm(1)=   4.656107  celldm(2)=   0.000000  celldm(3)=   6.087896
     celldm(4)=   0.000000  celldm(5)=   0.000000  celldm(6)=   0.000000

     crystal axes: (cart. coord. in units of alat)
               a(1) = (   1.000000   0.000000   0.000000 )  
               a(2) = (  -0.500000   0.866025   0.000000 )  
               a(3) = (   0.000000   0.000000   6.087896 )  

     reciprocal axes: (cart. coord. in units 2 pi/alat)
               b(1) = (  1.000000  0.577350  0.000000 )  
               b(2) = (  0.000000  1.154701  0.000000 )  
               b(3) = (  0.000000  0.000000  0.164260 )  


     PseudoPot. # 1 for C  read from file:
     ../pseudo/C.pbe-n-rrkjus_psl.0.1.UPF
     MD5 check sum: 96a6a315177d77e6c95bf6fd3870f9e3
     Pseudo is Ultrasoft + core correction, Zval =  4.0
     Generated using &quot;atomic&quot; code by A. Dal Corso  v.6.3MaX
     Using radial grid of 1073 points,  4 beta functions with: 
                l(1) =   0
                l(2) =   0
                l(3) =   1
                l(4) =   1
     Q(r) pseudized with 0 coefficients 


     atomic species   valence    mass     pseudopotential
        C              4.00    12.01070     C ( 1.00)

     24 Sym. Ops., with inversion, found



   Cartesian axes

     site n.     atom                  positions (alat units)
         1           C   tau(   1) = (   0.0000000   0.5773503   3.0439478  )
         2           C   tau(   2) = (   0.5000000   0.2886751   3.0439478  )

     number of k points=   156  Marzari-Vanderbilt smearing, width (Ry)=  0.0200

     Number of k-points >= 100: set verbosity='high' to print them.

     Dense  grid:    51311 G-vectors     FFT dimensions: (  27,  27, 162)

     Estimated max dynamical RAM per process >      13.67 MB

     Estimated total dynamical RAM >      54.68 MB
 ----2D----2D----2D----2D----2D----2D----2D----2D----2D----2D----2D----2D
  The code is running with the 2D cutoff
  Please refer to:
  Sohier, T., Calandra, M., & Mauri, F. (2017), 
  Density functional perturbation theory for gated two-dimensional heterostructu
 res:
  Theoretical developments and application to flexural phonons in graphene.
  Physical Review B, 96(7), 75448. https://doi.org/10.1103/PhysRevB.96.075448
 ----2D----2D----2D----2D----2D----2D----2D----2D----2D----2D----2D----2D

     Check: negative core charge=   -0.000001

     The potential is recalculated from file :
     ../tmp/_ph0/gr.save/charge-density


     negative rho (up, down):  2.304E-05 0.000E+00
     Starting wfcs are    8 atomic wfcs

     Band Structure Calculation
     Davidson diagonalization with overlap

     ethr =  1.25E-10,  avg # of iterations = 37.9

     total cpu time spent up to now is       22.0 secs

     End of band structure calculation

     Number of k-points >= 100: set verbosity='high' to print the bands.

     the Fermi energy is    -4.1997 ev

     Writing config to output data dir ../tmp/_ph0/gr.save/

     phonon calc.                                                               

     bravais-lattice index     =            4
     lattice parameter (alat)  =       4.6561  a.u.
     unit-cell volume          =     532.1899 (a.u.)^3
     number of atoms/cell      =            2
     number of atomic types    =            1
     kinetic-energy cut-off    =      80.0000  Ry
     charge density cut-off    =     320.0000  Ry
     convergence threshold     =      1.0E-14
     beta                      =       0.7000
     number of iterations used =            4
     Exchange-correlation= PBE
                           (   1   4   3   4   0   0   0)


     celldm(1)=    4.65611  celldm(2)=    0.00000  celldm(3)=    6.08790
     celldm(4)=    0.00000  celldm(5)=    0.00000  celldm(6)=    0.00000

     crystal axes: (cart. coord. in units of alat)
               a(1) = (  1.0000  0.0000  0.0000 )  
               a(2) = ( -0.5000  0.8660  0.0000 )  
               a(3) = (  0.0000  0.0000  6.0879 )  

     reciprocal axes: (cart. coord. in units 2 pi/alat)
               b(1) = (  1.0000  0.5774  0.0000 )  
               b(2) = (  0.0000  1.1547  0.0000 )  
               b(3) = (  0.0000  0.0000  0.1643 )  


     Atoms inside the unit cell: 

     Cartesian axes

     site n.  atom      mass           positions (alat units)
        1     C   12.0107   tau(    1) = (    0.00000    0.57735    3.04395  )
        2     C   12.0107   tau(    2) = (    0.50000    0.28868    3.04395  )

     Computing dynamical matrix for 
                    q = (   0.0000000   0.3849002   0.0000000 )
 
      4 Sym.Ops. (no q -> -q+G )


     G cutoff =  175.7260  (  12829 G-vectors)     FFT grid: ( 27, 27,162)

     number of k points=   156  Marzari-Vanderbilt smearing, width (Ry)=  0.0200

     PseudoPot. # 1 for C  read from file:
     ../pseudo/C.pbe-n-rrkjus_psl.0.1.UPF
     MD5 check sum: 96a6a315177d77e6c95bf6fd3870f9e3
     Pseudo is Ultrasoft + core correction, Zval =  4.0
     Generated using &quot;atomic&quot; code by A. Dal Corso  v.6.3MaX
     Using radial grid of 1073 points,  4 beta functions with: 
                l(1) =   0
                l(2) =   0
                l(3) =   1
                l(4) =   1
     Q(r) pseudized with 0 coefficients 


     Mode symmetry, C_2v (mm2)  point group:


     Atomic displacements:
     There are    6 irreducible representations

     Representation     1      1 modes -  To be done

     Representation     2      1 modes -  To be done

     Representation     3      1 modes -  To be done

     Representation     4      1 modes -  To be done

     Representation     5      1 modes -  To be done

     Representation     6      1 modes -  To be done



     Alpha used in Ewald sum =   2.8000

     negative rho (up, down):  2.304E-05 0.000E+00
     PHONON       :   1m54.25s CPU   1m57.40s WALL



     Representation #   1 mode #   1

     Self-consistent Calculation

      iter #   1 total cpu time :   119.1 secs   av.it.:   9.3
      thresh= 1.000E-02 alpha_mix =  0.700 |ddv_scf|^2 =  9.266E-06

      iter #   2 total cpu time :   121.4 secs   av.it.:  14.4
      thresh= 3.044E-04 alpha_mix =  0.700 |ddv_scf|^2 =  2.451E-05

      iter #   3 total cpu time :   123.4 secs   av.it.:  13.2
      thresh= 4.951E-04 alpha_mix =  0.700 |ddv_scf|^2 =  6.167E-08

      iter #   4 total cpu time :   125.7 secs   av.it.:  14.9
      thresh= 2.483E-05 alpha_mix =  0.700 |ddv_scf|^2 =  9.792E-09

      iter #   5 total cpu time :   127.9 secs   av.it.:  14.3
      thresh= 9.895E-06 alpha_mix =  0.700 |ddv_scf|^2 =  3.409E-10

      iter #   6 total cpu time :   130.1 secs   av.it.:  14.6
      thresh= 1.846E-06 alpha_mix =  0.700 |ddv_scf|^2 =  4.576E-13

      iter #   7 total cpu time :   132.3 secs   av.it.:  14.5
      thresh= 6.765E-08 alpha_mix =  0.700 |ddv_scf|^2 =  6.602E-15

     End of self-consistent calculation

     Convergence has been achieved 


     Representation #   2 mode #   2

     Self-consistent Calculation

      iter #   1 total cpu time :   134.0 secs   av.it.:   9.3
      thresh= 1.000E-02 alpha_mix =  0.700 |ddv_scf|^2 =  9.266E-06

      iter #   2 total cpu time :   136.3 secs   av.it.:  14.4
      thresh= 3.044E-04 alpha_mix =  0.700 |ddv_scf|^2 =  2.451E-05

      iter #   3 total cpu time :   138.3 secs   av.it.:  13.2
      thresh= 4.951E-04 alpha_mix =  0.700 |ddv_scf|^2 =  6.167E-08

      iter #   4 total cpu time :   140.5 secs   av.it.:  14.8
      thresh= 2.483E-05 alpha_mix =  0.700 |ddv_scf|^2 =  9.792E-09

      iter #   5 total cpu time :   142.7 secs   av.it.:  14.3
      thresh= 9.896E-06 alpha_mix =  0.700 |ddv_scf|^2 =  3.409E-10

      iter #   6 total cpu time :   144.8 secs   av.it.:  14.6
      thresh= 1.846E-06 alpha_mix =  0.700 |ddv_scf|^2 =  4.577E-13

      iter #   7 total cpu time :   147.0 secs   av.it.:  14.5
      thresh= 6.765E-08 alpha_mix =  0.700 |ddv_scf|^2 =  6.633E-15

     End of self-consistent calculation

     Convergence has been achieved 


     Representation #   3 mode #   3

     Self-consistent Calculation

      iter #   1 total cpu time :   148.6 secs   av.it.:   8.5
      thresh= 1.000E-02 alpha_mix =  0.700 |ddv_scf|^2 =  2.677E-07

      iter #   2 total cpu time :   150.7 secs   av.it.:  14.1
      thresh= 5.174E-05 alpha_mix =  0.700 |ddv_scf|^2 =  1.322E-08

      iter #   3 total cpu time :   152.6 secs   av.it.:  13.1
      thresh= 1.150E-05 alpha_mix =  0.700 |ddv_scf|^2 =  6.655E-10

      iter #   4 total cpu time :   154.5 secs   av.it.:  12.8
      thresh= 2.580E-06 alpha_mix =  0.700 |ddv_scf|^2 =  1.079E-13

      iter #   5 total cpu time :   156.8 secs   av.it.:  15.3
      thresh= 3.285E-08 alpha_mix =  0.700 |ddv_scf|^2 =  1.453E-15

     End of self-consistent calculation

     Convergence has been achieved 


     Representation #   4 mode #   4

     Self-consistent Calculation

      iter #   1 total cpu time :   158.3 secs   av.it.:   8.5
      thresh= 1.000E-02 alpha_mix =  0.700 |ddv_scf|^2 =  2.677E-07

      iter #   2 total cpu time :   160.4 secs   av.it.:  14.2
      thresh= 5.174E-05 alpha_mix =  0.700 |ddv_scf|^2 =  1.322E-08

      iter #   3 total cpu time :   162.3 secs   av.it.:  13.1
      thresh= 1.150E-05 alpha_mix =  0.700 |ddv_scf|^2 =  6.655E-10

      iter #   4 total cpu time :   164.3 secs   av.it.:  12.8
      thresh= 2.580E-06 alpha_mix =  0.700 |ddv_scf|^2 =  1.079E-13

      iter #   5 total cpu time :   166.5 secs   av.it.:  15.3
      thresh= 3.285E-08 alpha_mix =  0.700 |ddv_scf|^2 =  1.453E-15

     End of self-consistent calculation

     Convergence has been achieved 


     Representation #   5 mode #   5

     Self-consistent Calculation

      iter #   1 total cpu time :   168.1 secs   av.it.:   8.1
      thresh= 1.000E-02 alpha_mix =  0.700 |ddv_scf|^2 =  1.026E-06

      iter #   2 total cpu time :   170.2 secs   av.it.:  14.2
      thresh= 1.013E-04 alpha_mix =  0.700 |ddv_scf|^2 =  7.405E-08

      iter #   3 total cpu time :   172.3 secs   av.it.:  14.4
      thresh= 2.721E-05 alpha_mix =  0.700 |ddv_scf|^2 =  5.169E-09

      iter #   4 total cpu time :   174.2 secs   av.it.:  13.3
      thresh= 7.190E-06 alpha_mix =  0.700 |ddv_scf|^2 =  1.078E-12

      iter #   5 total cpu time :   176.4 secs   av.it.:  14.8
      thresh= 1.038E-07 alpha_mix =  0.700 |ddv_scf|^2 =  3.110E-14

      iter #   6 total cpu time :   178.5 secs   av.it.:  14.2
      thresh= 1.764E-08 alpha_mix =  0.700 |ddv_scf|^2 =  2.280E-16

     End of self-consistent calculation

     Convergence has been achieved 


     Representation #   6 mode #   6

     Self-consistent Calculation

      iter #   1 total cpu time :   180.0 secs   av.it.:   8.1
      thresh= 1.000E-02 alpha_mix =  0.700 |ddv_scf|^2 =  1.026E-06

      iter #   2 total cpu time :   182.1 secs   av.it.:  14.2
      thresh= 1.013E-04 alpha_mix =  0.700 |ddv_scf|^2 =  7.405E-08

      iter #   3 total cpu time :   184.3 secs   av.it.:  14.3
      thresh= 2.721E-05 alpha_mix =  0.700 |ddv_scf|^2 =  5.169E-09

      iter #   4 total cpu time :   186.4 secs   av.it.:  13.3
      thresh= 7.190E-06 alpha_mix =  0.700 |ddv_scf|^2 =  1.077E-12

      iter #   5 total cpu time :   188.6 secs   av.it.:  14.8
      thresh= 1.038E-07 alpha_mix =  0.700 |ddv_scf|^2 =  3.109E-14

      iter #   6 total cpu time :   190.7 secs   av.it.:  14.1
      thresh= 1.763E-08 alpha_mix =  0.700 |ddv_scf|^2 =  2.281E-16

     End of self-consistent calculation

     Convergence has been achieved 
 
     Number of q in the star =    6
     List of q in the star:
          1   0.000000000   0.384900179   0.000000000
          2   0.000000000  -0.384900179   0.000000000
          3  -0.333333333   0.192450090   0.000000000
          4  -0.333333333  -0.192450090   0.000000000
          5   0.333333333  -0.192450090   0.000000000
          6   0.333333333   0.192450090   0.000000000

     Diagonalizing the dynamical matrix

     q = (    0.000000000   0.384900179   0.000000000 ) 

 **************************************************************************
     freq (    1) =       8.231149 [THz] =     274.561565 [cm-1]
     freq (    2) =      16.602346 [THz] =     553.794637 [cm-1]
     freq (    3) =      23.079589 [THz] =     769.852222 [cm-1]
     freq (    4) =      30.075751 [THz] =    1003.219078 [cm-1]
     freq (    5) =      42.746144 [THz] =    1425.857874 [cm-1]
     freq (    6) =      45.995706 [THz] =    1534.251613 [cm-1]
 **************************************************************************

     Mode symmetry, C_2v (mm2)  point group:

     freq (   1-   1) =        274.6  [cm-1]   --> B_2  D_4  S_4      
     freq (   2-   2) =        553.8  [cm-1]   --> B_1  D_3  S_3      
     freq (   3-   3) =        769.9  [cm-1]   --> B_2  D_4  S_4      
     freq (   4-   4) =       1003.2  [cm-1]   --> A_1  D_1  S_1      
     freq (   5-   5) =       1425.9  [cm-1]   --> B_1  D_3  S_3      
     freq (   6-   6) =       1534.3  [cm-1]   --> A_1  D_1  S_1      

     Calculation of q =    0.0000000  -0.5773503   0.0000000
 
     Parallelization info
     --------------------
     sticks:   dense  smooth     PW     G-vecs:    dense   smooth      PW
     Min         118     118     40                12812    12812    2596
     Max         119     119     41                12835    12835    2617
     Sum         475     475    163                51311    51311   10433
 
     Using Slab Decomposition
 

     Title: 
     phonon calc.                                                               


     bravais-lattice index     =            4
     lattice parameter (alat)  =       4.6561  a.u.
     unit-cell volume          =     532.1899 (a.u.)^3
     number of atoms/cell      =            2
     number of atomic types    =            1
     number of electrons       =         8.00
     number of Kohn-Sham states=            8
     kinetic-energy cutoff     =      80.0000  Ry
     charge density cutoff     =     320.0000  Ry
     Exchange-correlation= PBE
                           (   1   4   3   4   0   0   0)

     celldm(1)=   4.656107  celldm(2)=   0.000000  celldm(3)=   6.087896
     celldm(4)=   0.000000  celldm(5)=   0.000000  celldm(6)=   0.000000

     crystal axes: (cart. coord. in units of alat)
               a(1) = (   1.000000   0.000000   0.000000 )  
               a(2) = (  -0.500000   0.866025   0.000000 )  
               a(3) = (   0.000000   0.000000   6.087896 )  

     reciprocal axes: (cart. coord. in units 2 pi/alat)
               b(1) = (  1.000000  0.577350  0.000000 )  
               b(2) = (  0.000000  1.154701  0.000000 )  
               b(3) = (  0.000000  0.000000  0.164260 )  


     PseudoPot. # 1 for C  read from file:
     ../pseudo/C.pbe-n-rrkjus_psl.0.1.UPF
     MD5 check sum: 96a6a315177d77e6c95bf6fd3870f9e3
     Pseudo is Ultrasoft + core correction, Zval =  4.0
     Generated using &quot;atomic&quot; code by A. Dal Corso  v.6.3MaX
     Using radial grid of 1073 points,  4 beta functions with: 
                l(1) =   0
                l(2) =   0
                l(3) =   1
                l(4) =   1
     Q(r) pseudized with 0 coefficients 


     atomic species   valence    mass     pseudopotential
        C              4.00    12.01070     C ( 1.00)

     24 Sym. Ops., with inversion, found



   Cartesian axes

     site n.     atom                  positions (alat units)
         1           C   tau(   1) = (   0.0000000   0.5773503   3.0439478  )
         2           C   tau(   2) = (   0.5000000   0.2886751   3.0439478  )

     number of k points=    86  Marzari-Vanderbilt smearing, width (Ry)=  0.0200
                       cart. coord. in units 2pi/alat
        k(    1) = (   0.0000000   0.0000000   0.0000000), wk =   0.0138889
        k(    2) = (   0.0000000  -0.5773503   0.0000000), wk =   0.0000000
        k(    3) = (   0.0000000   0.0962250   0.0000000), wk =   0.0277778
        k(    4) = (   0.0000000  -0.4811252   0.0000000), wk =   0.0000000
        k(    5) = (   0.0000000   0.1924501   0.0000000), wk =   0.0277778
        k(    6) = (   0.0000000  -0.3849002   0.0000000), wk =   0.0000000
        k(    7) = (   0.0000000   0.2886751   0.0000000), wk =   0.0277778
        k(    8) = (   0.0000000  -0.2886751   0.0000000), wk =   0.0000000
        k(    9) = (   0.0000000   0.3849002   0.0000000), wk =   0.0277778
        k(   10) = (   0.0000000  -0.1924501   0.0000000), wk =   0.0000000
        k(   11) = (   0.0000000   0.4811252   0.0000000), wk =   0.0277778
        k(   12) = (   0.0000000  -0.0962250   0.0000000), wk =   0.0000000
        k(   13) = (   0.0000000  -0.5773503   0.0000000), wk =   0.0138889
        k(   14) = (   0.0000000  -1.1547005   0.0000000), wk =   0.0000000
        k(   15) = (   0.0833333   0.1443376   0.0000000), wk =   0.0555556
        k(   16) = (   0.0833333  -0.4330127   0.0000000), wk =   0.0000000
        k(   17) = (   0.0833333   0.2405626   0.0000000), wk =   0.0555556
        k(   18) = (   0.0833333  -0.3367877   0.0000000), wk =   0.0000000
        k(   19) = (   0.0833333   0.3367877   0.0000000), wk =   0.0555556
        k(   20) = (   0.0833333  -0.2405626   0.0000000), wk =   0.0000000
        k(   21) = (   0.0833333   0.4330127   0.0000000), wk =   0.0555556
        k(   22) = (   0.0833333  -0.1443376   0.0000000), wk =   0.0000000
        k(   23) = (   0.0833333   0.5292377   0.0000000), wk =   0.0555556
        k(   24) = (   0.0833333  -0.0481125   0.0000000), wk =   0.0000000
        k(   25) = (   0.1666667   0.2886751   0.0000000), wk =   0.0555556
        k(   26) = (   0.1666667  -0.2886751   0.0000000), wk =   0.0000000
        k(   27) = (   0.1666667   0.3849002   0.0000000), wk =   0.0555556
        k(   28) = (   0.1666667  -0.1924501   0.0000000), wk =   0.0000000
        k(   29) = (   0.1666667   0.4811252   0.0000000), wk =   0.0555556
        k(   30) = (   0.1666667  -0.0962250   0.0000000), wk =   0.0000000
        k(   31) = (   0.1666667   0.5773503   0.0000000), wk =   0.0277778
        k(   32) = (   0.1666667   0.0000000   0.0000000), wk =   0.0000000
        k(   33) = (   0.2500000   0.4330127   0.0000000), wk =   0.0555556
        k(   34) = (   0.2500000  -0.1443376   0.0000000), wk =   0.0000000
        k(   35) = (   0.2500000   0.5292377   0.0000000), wk =   0.0555556
        k(   36) = (   0.2500000  -0.0481125   0.0000000), wk =   0.0000000
        k(   37) = (   0.3333333   0.5773503   0.0000000), wk =   0.0277778
        k(   38) = (   0.3333333   0.0000000   0.0000000), wk =   0.0000000
        k(   39) = (   0.0833333  -0.0481125   0.0000000), wk =   0.0555556
        k(   40) = (   0.0833333  -0.6254628   0.0000000), wk =   0.0000000
        k(   41) = (   0.1666667  -0.0962250   0.0000000), wk =   0.0555556
        k(   42) = (   0.1666667  -0.6735753   0.0000000), wk =   0.0000000
        k(   43) = (   0.2500000  -0.1443376   0.0000000), wk =   0.0555556
        k(   44) = (   0.2500000  -0.7216878   0.0000000), wk =   0.0000000
        k(   45) = (   0.3333333  -0.1924501   0.0000000), wk =   0.0555556
        k(   46) = (   0.3333333  -0.7698004   0.0000000), wk =   0.0000000
        k(   47) = (   0.4166667  -0.2405626   0.0000000), wk =   0.0555556
        k(   48) = (   0.4166667  -0.8179129   0.0000000), wk =   0.0000000
        k(   49) = (  -0.5000000   0.2886751   0.0000000), wk =   0.0277778
        k(   50) = (  -0.5000000  -0.2886751   0.0000000), wk =   0.0000000
        k(   51) = (  -0.1666667  -0.0000000   0.0000000), wk =   0.0277778
        k(   52) = (  -0.1666667  -0.5773503   0.0000000), wk =   0.0000000
        k(   53) = (   0.1666667  -0.1924501   0.0000000), wk =   0.0555556
        k(   54) = (   0.1666667  -0.7698004   0.0000000), wk =   0.0000000
        k(   55) = (  -0.2500000  -0.0481125   0.0000000), wk =   0.0555556
        k(   56) = (  -0.2500000  -0.6254628   0.0000000), wk =   0.0000000
        k(   57) = (   0.2500000  -0.2405626   0.0000000), wk =   0.0555556
        k(   58) = (   0.2500000  -0.8179129   0.0000000), wk =   0.0000000
        k(   59) = (  -0.3333333  -0.0962250   0.0000000), wk =   0.0555556
        k(   60) = (  -0.3333333  -0.6735753   0.0000000), wk =   0.0000000
        k(   61) = (   0.3333333  -0.2886751   0.0000000), wk =   0.0555556
        k(   62) = (   0.3333333  -0.8660254   0.0000000), wk =   0.0000000
        k(   63) = (  -0.4166667  -0.1443376   0.0000000), wk =   0.0555556
        k(   64) = (  -0.4166667  -0.7216878   0.0000000), wk =   0.0000000
        k(   65) = (   0.4166667  -0.3367877   0.0000000), wk =   0.0555556
        k(   66) = (   0.4166667  -0.9141379   0.0000000), wk =   0.0000000
        k(   67) = (  -0.5000000  -0.1924501   0.0000000), wk =   0.0555556
        k(   68) = (  -0.5000000  -0.7698004   0.0000000), wk =   0.0000000
        k(   69) = (  -0.3333333  -0.0000000   0.0000000), wk =   0.0277778
        k(   70) = (  -0.3333333  -0.5773503   0.0000000), wk =   0.0000000
        k(   71) = (   0.2500000  -0.3367877   0.0000000), wk =   0.0555556
        k(   72) = (   0.2500000  -0.9141379   0.0000000), wk =   0.0000000
        k(   73) = (  -0.4166667  -0.0481125   0.0000000), wk =   0.0555556
        k(   74) = (  -0.4166667  -0.6254628   0.0000000), wk =   0.0000000
        k(   75) = (   0.3333333  -0.3849002   0.0000000), wk =   0.0555556
        k(   76) = (   0.3333333  -0.9622504   0.0000000), wk =   0.0000000
        k(   77) = (  -0.5000000  -0.0962250   0.0000000), wk =   0.0555556
        k(   78) = (  -0.5000000  -0.6735753   0.0000000), wk =   0.0000000
        k(   79) = (   0.4166667  -0.4330127   0.0000000), wk =   0.0555556
        k(   80) = (   0.4166667  -1.0103630   0.0000000), wk =   0.0000000
        k(   81) = (  -0.5000000   0.0000000   0.0000000), wk =   0.0277778
        k(   82) = (  -0.5000000  -0.5773503   0.0000000), wk =   0.0000000
        k(   83) = (   0.3333333  -0.4811252   0.0000000), wk =   0.0555556
        k(   84) = (   0.3333333  -1.0584755   0.0000000), wk =   0.0000000
        k(   85) = (  -0.5833333  -0.0481125   0.0000000), wk =   0.0555556
        k(   86) = (  -0.5833333  -0.6254628   0.0000000), wk =   0.0000000

     Dense  grid:    51311 G-vectors     FFT dimensions: (  27,  27, 162)

     Estimated max dynamical RAM per process >      13.68 MB

     Estimated total dynamical RAM >      54.70 MB
 ----2D----2D----2D----2D----2D----2D----2D----2D----2D----2D----2D----2D
  The code is running with the 2D cutoff
  Please refer to:
  Sohier, T., Calandra, M., & Mauri, F. (2017), 
  Density functional perturbation theory for gated two-dimensional heterostructu
 res:
  Theoretical developments and application to flexural phonons in graphene.
  Physical Review B, 96(7), 75448. https://doi.org/10.1103/PhysRevB.96.075448
 ----2D----2D----2D----2D----2D----2D----2D----2D----2D----2D----2D----2D

     Check: negative core charge=   -0.000001

     The potential is recalculated from file :
     ../tmp/_ph0/gr.save/charge-density


     negative rho (up, down):  2.304E-05 0.000E+00
     Starting wfcs are    8 atomic wfcs

     Band Structure Calculation
     Davidson diagonalization with overlap

     ethr =  1.25E-10,  avg # of iterations = 36.5

     total cpu time spent up to now is       28.1 secs

     End of band structure calculation

          k = 0.0000 0.0000 0.0000 (  6489 PWs)   bands (ev):

   -23.7689 -11.8721  -7.3105  -7.3105  -0.9836  -0.1247   1.5167   2.4481

          k = 0.0000-0.5774 0.0000 (  6386 PWs)   bands (ev):

   -18.5233 -17.4996 -10.6903  -6.6025  -2.5581   3.1634   6.8761   7.0299

          k = 0.0000 0.0962 0.0000 (  6493 PWs)   bands (ev):

   -23.6049 -11.6758  -7.9593  -7.6488  -0.7607   0.1005   1.7409   2.6708

          k = 0.0000-0.4811 0.0000 (  6418 PWs)   bands (ev):

   -19.7900 -15.9905 -10.5279  -7.4479  -1.4592   3.2411   4.5755   7.1344

          k = 0.0000 0.1925 0.0000 (  6481 PWs)   bands (ev):

   -23.1150 -11.0924  -9.5936  -8.4413  -0.0921   0.7745   2.4130   3.3352

          k = 0.0000-0.3849 0.0000 (  6414 PWs)   bands (ev):

   -21.1861 -13.8908 -10.0548  -8.8717   0.6782   2.5636   3.4855   3.5002

          k = 0.0000 0.2887 0.0000 (  6429 PWs)   bands (ev):

   -22.3047 -11.6892 -10.1409  -9.3212   1.0202   1.8784   3.0329   3.5006

          k = 0.0000-0.2887 0.0000 (  6429 PWs)   bands (ev):

   -22.3047 -11.6892 -10.1409  -9.3212   1.0202   1.8784   3.0329   3.5006

          k = 0.0000 0.3849 0.0000 (  6414 PWs)   bands (ev):

   -21.1861 -13.8908 -10.0548  -8.8717   0.6782   2.5636   3.4855   3.5002

          k = 0.0000-0.1925 0.0000 (  6481 PWs)   bands (ev):

   -23.1150 -11.0924  -9.5936  -8.4413  -0.0921   0.7745   2.4130   3.3352

          k = 0.0000 0.4811 0.0000 (  6418 PWs)   bands (ev):

   -19.7900 -15.9905 -10.5279  -7.4479  -1.4592   3.2411   4.5755   7.1344

          k = 0.0000-0.0962 0.0000 (  6493 PWs)   bands (ev):

   -23.6049 -11.6758  -7.9593  -7.6488  -0.7607   0.1005   1.7409   2.6708

          k = 0.0000-0.5774 0.0000 (  6386 PWs)   bands (ev):

   -18.5233 -17.4996 -10.6903  -6.6025  -2.5581   3.1634   6.8761   7.0299

          k = 0.0000-1.1547 0.0000 (  6489 PWs)   bands (ev):

   -23.7689 -11.8721  -7.3105  -7.3105  -0.9836  -0.1247   1.5167   2.4481

          k = 0.0833 0.1443 0.0000 (  6473 PWs)   bands (ev):

   -23.2780 -11.2859  -8.9906  -8.3261  -0.3147   0.5503   2.1898   3.1152

          k = 0.0833-0.4330 0.0000 (  6423 PWs)   bands (ev):

   -20.4029 -14.8902 -10.8449  -8.0198  -0.5110   3.6526   4.0995   4.5725

          k = 0.0833 0.2406 0.0000 (  6444 PWs)   bands (ev):

   -22.6279 -10.6975 -10.5172  -9.3239   0.5767   1.4457   3.0865   3.8398

          k = 0.0833-0.3368 0.0000 (  6420 PWs)   bands (ev):

   -21.6633 -12.7685 -10.2101  -9.4004   1.6911   1.9092   2.8111   4.2737

          k = 0.0833 0.3368 0.0000 (  6420 PWs)   bands (ev):

   -21.6633 -12.7685 -10.2101  -9.4004   1.6911   1.9092   2.8111   4.2737

          k = 0.0833-0.2406 0.0000 (  6444 PWs)   bands (ev):

   -22.6279 -10.6975 -10.5172  -9.3239   0.5767   1.4457   3.0865   3.8398

          k = 0.0833 0.4330 0.0000 (  6423 PWs)   bands (ev):

   -20.4029 -14.8902 -10.8449  -8.0198  -0.5110   3.6526   4.0995   4.5725

          k = 0.0833-0.1443 0.0000 (  6473 PWs)   bands (ev):

   -23.2780 -11.2859  -8.9906  -8.3261  -0.3147   0.5503   2.1898   3.1152

          k = 0.0833 0.5292 0.0000 (  6418 PWs)   bands (ev):

   -18.9224 -16.8323 -11.1733  -6.7094  -2.2815   3.8998   5.8726   6.7280

          k = 0.0833-0.0481 0.0000 (  6493 PWs)   bands (ev):

   -23.6049 -11.6758  -7.9593  -7.6488  -0.7607   0.1005   1.7409   2.6708

          k = 0.1667 0.2887 0.0000 (  6421 PWs)   bands (ev):

   -21.8234 -12.0253 -10.6857  -9.5793   1.6894   2.1489   4.2101   5.7792

          k = 0.1667-0.2887 0.0000 (  6421 PWs)   bands (ev):

   -21.8234 -12.0253 -10.6857  -9.5793   1.6894   2.1489   4.2101   5.7792

          k = 0.1667 0.3849 0.0000 (  6439 PWs)   bands (ev):

   -20.7157 -13.7513 -11.7414  -8.3253   0.1990   3.2379   4.0928   5.7395

          k = 0.1667-0.1925 0.0000 (  6444 PWs)   bands (ev):

   -22.6279 -10.6975 -10.5172  -9.3239   0.5767   1.4457   3.0865   3.8398

          k = 0.1667 0.4811 0.0000 (  6433 PWs)   bands (ev):

   -19.3396 -15.6620 -12.3166  -6.8974  -1.7152   5.1939   5.8127   5.9692

          k = 0.1667-0.0962 0.0000 (  6481 PWs)   bands (ev):

   -23.1150 -11.0924  -9.5936  -8.4413  -0.0921   0.7745   2.4130   3.3352

          k = 0.1667 0.5774 0.0000 (  6408 PWs)   bands (ev):

   -18.1025 -17.0994 -12.5013  -6.0039  -2.7845   5.7047   7.4363   7.6362

          k = 0.1667 0.0000 0.0000 (  6473 PWs)   bands (ev):

   -23.2780 -11.2859  -8.9906  -8.3261  -0.3147   0.5503   2.1898   3.1152

          k = 0.2500 0.4330 0.0000 (  6437 PWs)   bands (ev):

   -19.4874 -14.7842 -13.2254  -6.9816  -1.4170   4.9859   7.5231   8.0386

          k = 0.2500-0.1443 0.0000 (  6429 PWs)   bands (ev):

   -22.3047 -11.6892 -10.1409  -9.3212   1.0202   1.8784   3.0329   3.5006

          k = 0.2500 0.5292 0.0000 (  6421 PWs)   bands (ev):

   -18.0644 -16.2062 -13.9324  -5.5947  -2.9386   6.6402   7.0775   7.9702

          k = 0.2500-0.0481 0.0000 (  6444 PWs)   bands (ev):

   -22.6279 -10.6975 -10.5172  -9.3239   0.5767   1.4457   3.0865   3.8398

          k = 0.3333 0.5774 0.0000 (  6408 PWs)   bands (ev):

   -16.8463 -16.8463 -14.8315  -4.2376  -4.2376   8.6469   8.6469  11.2271

          k = 0.3333 0.0000 0.0000 (  6421 PWs)   bands (ev):

   -21.8234 -12.0253 -10.6857  -9.5793   1.6894   2.1489   4.2101   5.7792

          k = 0.0833-0.0481 0.0000 (  6493 PWs)   bands (ev):

   -23.6049 -11.6758  -7.9593  -7.6488  -0.7607   0.1005   1.7409   2.6708

          k = 0.0833-0.6255 0.0000 (  6418 PWs)   bands (ev):

   -18.9224 -16.8323 -11.1733  -6.7094  -2.2815   3.8998   5.8726   6.7280

          k = 0.1667-0.0962 0.0000 (  6481 PWs)   bands (ev):

   -23.1150 -11.0924  -9.5936  -8.4413  -0.0921   0.7745   2.4130   3.3352

          k = 0.1667-0.6736 0.0000 (  6433 PWs)   bands (ev):

   -19.3396 -15.6620 -12.3166  -6.8974  -1.7152   5.1939   5.8127   7.7926

          k = 0.2500-0.1443 0.0000 (  6429 PWs)   bands (ev):

   -22.3047 -11.6892 -10.1409  -9.3212   1.0202   1.8784   3.0329   3.5006

          k = 0.2500-0.7217 0.0000 (  6437 PWs)   bands (ev):

   -19.4874 -14.7842 -13.2254  -6.9816  -1.4170   4.9859   7.5231   8.0386

          k = 0.3333-0.1925 0.0000 (  6414 PWs)   bands (ev):

   -21.1861 -13.8908 -10.0548  -8.8717   0.6782   2.5636   3.4855   3.5002

          k = 0.3333-0.7698 0.0000 (  6433 PWs)   bands (ev):

   -19.3396 -15.6620 -12.3166  -6.8974  -1.7152   5.1939   5.8127   5.9692

          k = 0.4167-0.2406 0.0000 (  6418 PWs)   bands (ev):

   -19.7900 -15.9905 -10.5279  -7.4479  -1.4592   3.2411   4.5755   7.1344

          k = 0.4167-0.8179 0.0000 (  6418 PWs)   bands (ev):

   -18.9224 -16.8323 -11.1733  -6.7094  -2.2815   3.8998   5.8726   6.7280

          k =-0.5000 0.2887 0.0000 (  6386 PWs)   bands (ev):

   -18.5233 -17.4996 -10.6903  -6.6025  -2.5581   3.1634   6.8761   7.0299

          k =-0.5000-0.2887 0.0000 (  6386 PWs)   bands (ev):

   -18.5233 -17.4996 -10.6903  -6.6025  -2.5581   3.1634   6.8761   7.0299

          k =-0.1667-0.0000 0.0000 (  6473 PWs)   bands (ev):

   -23.2780 -11.2859  -8.9906  -8.3261  -0.3147   0.5503   2.1898   3.1152

          k =-0.1667-0.5774 0.0000 (  6408 PWs)   bands (ev):

   -18.1025 -17.0994 -12.5013  -6.0039  -2.7845   5.7047   7.4363   7.6362

          k = 0.1667-0.1925 0.0000 (  6444 PWs)   bands (ev):

   -22.6279 -10.6975 -10.5172  -9.3239   0.5767   1.4457   3.0865   3.8398

          k = 0.1667-0.7698 0.0000 (  6439 PWs)   bands (ev):

   -20.7157 -13.7513 -11.7414  -8.3253   0.1990   3.2379   4.0928   5.7395

          k =-0.2500-0.0481 0.0000 (  6444 PWs)   bands (ev):

   -22.6279 -10.6975 -10.5172  -9.3239   0.5767   1.4457   3.0865   3.8398

          k =-0.2500-0.6255 0.0000 (  6421 PWs)   bands (ev):

   -18.0644 -16.2062 -13.9324  -5.5947  -2.9386   6.6402   7.0775   7.9702

          k = 0.2500-0.2406 0.0000 (  6420 PWs)   bands (ev):

   -21.6633 -12.7685 -10.2101  -9.4004   1.6911   1.9092   2.8111   4.2737

          k = 0.2500-0.8179 0.0000 (  6439 PWs)   bands (ev):

   -20.7157 -13.7513 -11.7414  -8.3253   0.1990   3.2379   4.0928   5.7395

          k =-0.3333-0.0962 0.0000 (  6420 PWs)   bands (ev):

   -21.6633 -12.7685 -10.2101  -9.4004   1.6911   1.9092   2.8111   4.2737

          k =-0.3333-0.6736 0.0000 (  6421 PWs)   bands (ev):

   -18.0644 -16.2062 -13.9324  -5.5947  -2.9386   6.6402   7.0775   7.9702

          k = 0.3333-0.2887 0.0000 (  6423 PWs)   bands (ev):

   -20.4029 -14.8902 -10.8449  -8.0198  -0.5110   3.6526   4.0995   4.5725

          k = 0.3333-0.8660 0.0000 (  6423 PWs)   bands (ev):

   -20.4029 -14.8902 -10.8449  -8.0198  -0.5110   3.6526   4.0995   4.5725

          k =-0.4167-0.1443 0.0000 (  6423 PWs)   bands (ev):

   -20.4029 -14.8902 -10.8449  -8.0198  -0.5110   3.6526   4.0995   4.5725

          k =-0.4167-0.7217 0.0000 (  6408 PWs)   bands (ev):

   -18.1025 -17.0994 -12.5013  -6.0039  -2.7845   5.7047   7.4363   7.6362

          k = 0.4167-0.3368 0.0000 (  6418 PWs)   bands (ev):

   -18.9224 -16.8323 -11.1733  -6.7094  -2.2815   3.8998   5.8726   6.7280

          k = 0.4167-0.9141 0.0000 (  6418 PWs)   bands (ev):

   -19.7900 -15.9905 -10.5279  -7.4479  -1.4592   3.2411   4.5755   7.1344

          k =-0.5000-0.1925 0.0000 (  6418 PWs)   bands (ev):

   -18.9224 -16.8323 -11.1733  -6.7094  -2.2815   3.8998   5.8726   6.7280

          k =-0.5000-0.7698 0.0000 (  6418 PWs)   bands (ev):

   -18.9224 -16.8323 -11.1733  -6.7094  -2.2815   3.8998   5.8726   6.7280

          k =-0.3333-0.0000 0.0000 (  6421 PWs)   bands (ev):

   -21.8234 -12.0253 -10.6857  -9.5793   1.6894   2.1489   4.2101   5.7792

          k =-0.3333-0.5774 0.0000 (  6408 PWs)   bands (ev):

   -16.8463 -16.8463 -14.8315  -4.2376  -4.2376   8.6469   8.6469  11.2271

          k = 0.2500-0.3368 0.0000 (  6439 PWs)   bands (ev):

   -20.7157 -13.7513 -11.7414  -8.3253   0.1990   3.2379   4.0928   5.7395

          k = 0.2500-0.9141 0.0000 (  6420 PWs)   bands (ev):

   -21.6633 -12.7685 -10.2101  -9.4004   1.6911   1.9092   2.8111   4.2737

          k =-0.4167-0.0481 0.0000 (  6439 PWs)   bands (ev):

   -20.7157 -13.7513 -11.7414  -8.3253   0.1990   3.2379   4.0928   5.7395

          k =-0.4167-0.6255 0.0000 (  6421 PWs)   bands (ev):

   -18.0644 -16.2062 -13.9324  -5.5947  -2.9386   6.6402   7.0775   7.9702

          k = 0.3333-0.3849 0.0000 (  6433 PWs)   bands (ev):

   -19.3396 -15.6620 -12.3166  -6.8974  -1.7152   5.1939   5.8127   5.9692

          k = 0.3333-0.9623 0.0000 (  6414 PWs)   bands (ev):

   -21.1861 -13.8908 -10.0548  -8.8717   0.6782   2.5636   3.4855   3.5002

          k =-0.5000-0.0962 0.0000 (  6433 PWs)   bands (ev):

   -19.3396 -15.6620 -12.3166  -6.8974  -1.7152   5.1939   5.8127   5.9692

          k =-0.5000-0.6736 0.0000 (  6433 PWs)   bands (ev):

   -19.3396 -15.6620 -12.3166  -6.8974  -1.7152   5.1939   5.8127   5.9692

          k = 0.4167-0.4330 0.0000 (  6408 PWs)   bands (ev):

   -18.1025 -17.0994 -12.5013  -6.0039  -2.7845   5.7047   7.4363   7.6362

          k = 0.4167-1.0104 0.0000 (  6423 PWs)   bands (ev):

   -20.4029 -14.8902 -10.8449  -8.0198  -0.5110   3.6526   4.0995   4.5725

          k =-0.5000 0.0000 0.0000 (  6437 PWs)   bands (ev):

   -19.4874 -14.7842 -13.2254  -6.9816  -1.4170   4.9859   7.5231   8.0386

          k =-0.5000-0.5774 0.0000 (  6437 PWs)   bands (ev):

   -19.4874 -14.7842 -13.2254  -6.9816  -1.4170   4.9859   7.5231   8.0386

          k = 0.3333-0.4811 0.0000 (  6421 PWs)   bands (ev):

   -18.0644 -16.2062 -13.9324  -5.5947  -2.9386   6.6402   7.0775   7.9702

          k = 0.3333-1.0585 0.0000 (  6420 PWs)   bands (ev):

   -21.6633 -12.7685 -10.2101  -9.4004   1.6911   1.9092   2.8111   4.2737

          k =-0.5833-0.0481 0.0000 (  6421 PWs)   bands (ev):

   -18.0644 -16.2062 -13.9324  -5.5947  -2.9386   6.6402   7.0775   7.9702

          k =-0.5833-0.6255 0.0000 (  6439 PWs)   bands (ev):

   -20.7157 -13.7513 -11.7414  -8.3253   0.1990   3.2379   4.0928   5.7395

     the Fermi energy is    -4.1997 ev

     Writing config to output data dir ../tmp/_ph0/gr.save/

     phonon calc.                                                               

     bravais-lattice index     =            4
     lattice parameter (alat)  =       4.6561  a.u.
     unit-cell volume          =     532.1899 (a.u.)^3
     number of atoms/cell      =            2
     number of atomic types    =            1
     kinetic-energy cut-off    =      80.0000  Ry
     charge density cut-off    =     320.0000  Ry
     convergence threshold     =      1.0E-14
     beta                      =       0.7000
     number of iterations used =            4
     Exchange-correlation= PBE
                           (   1   4   3   4   0   0   0)


     celldm(1)=    4.65611  celldm(2)=    0.00000  celldm(3)=    6.08790
     celldm(4)=    0.00000  celldm(5)=    0.00000  celldm(6)=    0.00000

     crystal axes: (cart. coord. in units of alat)
               a(1) = (  1.0000  0.0000  0.0000 )  
               a(2) = ( -0.5000  0.8660  0.0000 )  
               a(3) = (  0.0000  0.0000  6.0879 )  

     reciprocal axes: (cart. coord. in units 2 pi/alat)
               b(1) = (  1.0000  0.5774  0.0000 )  
               b(2) = (  0.0000  1.1547  0.0000 )  
               b(3) = (  0.0000  0.0000  0.1643 )  


     Atoms inside the unit cell: 

     Cartesian axes

     site n.  atom      mass           positions (alat units)
        1     C   12.0107   tau(    1) = (    0.00000    0.57735    3.04395  )
        2     C   12.0107   tau(    2) = (    0.50000    0.28868    3.04395  )

     Computing dynamical matrix for 
                    q = (   0.0000000  -0.5773503   0.0000000 )
 
      9 Sym.Ops. (with q -> -q+G )


     G cutoff =  175.7260  (  12829 G-vectors)     FFT grid: ( 27, 27,162)

     number of k points=    86  Marzari-Vanderbilt smearing, width (Ry)=  0.0200

     PseudoPot. # 1 for C  read from file:
     ../pseudo/C.pbe-n-rrkjus_psl.0.1.UPF
     MD5 check sum: 96a6a315177d77e6c95bf6fd3870f9e3
     Pseudo is Ultrasoft + core correction, Zval =  4.0
     Generated using &quot;atomic&quot; code by A. Dal Corso  v.6.3MaX
     Using radial grid of 1073 points,  4 beta functions with: 
                l(1) =   0
                l(2) =   0
                l(3) =   1
                l(4) =   1
     Q(r) pseudized with 0 coefficients 


     Mode symmetry, D_2h (mmm)  point group:


     Atomic displacements:
     There are    6 irreducible representations

     Representation     1      1 modes -  To be done

     Representation     2      1 modes -  To be done

     Representation     3      1 modes -  To be done

     Representation     4      1 modes -  To be done

     Representation     5      1 modes -  To be done

     Representation     6      1 modes -  To be done



     Alpha used in Ewald sum =   2.8000

     negative rho (up, down):  2.304E-05 0.000E+00
     PHONON       :   3m12.48s CPU   3m17.71s WALL



     Representation #   1 mode #   1

     Self-consistent Calculation

      iter #   1 total cpu time :   198.7 secs   av.it.:   9.0
      thresh= 1.000E-02 alpha_mix =  0.700 |ddv_scf|^2 =  5.369E-06

      iter #   2 total cpu time :   199.9 secs   av.it.:  14.3
      thresh= 2.317E-04 alpha_mix =  0.700 |ddv_scf|^2 =  4.687E-06

      iter #   3 total cpu time :   201.1 secs   av.it.:  13.7
      thresh= 2.165E-04 alpha_mix =  0.700 |ddv_scf|^2 =  3.060E-08

      iter #   4 total cpu time :   202.3 secs   av.it.:  14.5
      thresh= 1.749E-05 alpha_mix =  0.700 |ddv_scf|^2 =  1.849E-09

      iter #   5 total cpu time :   203.6 secs   av.it.:  14.2
      thresh= 4.300E-06 alpha_mix =  0.700 |ddv_scf|^2 =  7.327E-14

      iter #   6 total cpu time :   204.9 secs   av.it.:  15.1
      thresh= 2.707E-08 alpha_mix =  0.700 |ddv_scf|^2 =  5.791E-15

     End of self-consistent calculation

     Convergence has been achieved 


     Representation #   2 mode #   2

     Self-consistent Calculation

      iter #   1 total cpu time :   205.7 secs   av.it.:   6.7
      thresh= 1.000E-02 alpha_mix =  0.700 |ddv_scf|^2 =  1.994E-07

      iter #   2 total cpu time :   206.7 secs   av.it.:  11.0
      thresh= 4.465E-05 alpha_mix =  0.700 |ddv_scf|^2 =  1.789E-08

      iter #   3 total cpu time :   207.7 secs   av.it.:  10.8
      thresh= 1.337E-05 alpha_mix =  0.700 |ddv_scf|^2 =  6.378E-13

      iter #   4 total cpu time :   208.9 secs   av.it.:  14.1
      thresh= 7.986E-08 alpha_mix =  0.700 |ddv_scf|^2 =  1.250E-14

      iter #   5 total cpu time :   210.1 secs   av.it.:  13.0
      thresh= 1.118E-08 alpha_mix =  0.700 |ddv_scf|^2 =  2.995E-16

     End of self-consistent calculation

     Convergence has been achieved 


     Representation #   3 mode #   3

     Self-consistent Calculation

      iter #   1 total cpu time :   211.0 secs   av.it.:   8.1
      thresh= 1.000E-02 alpha_mix =  0.700 |ddv_scf|^2 =  8.210E-07

      iter #   2 total cpu time :   212.1 secs   av.it.:  13.8
      thresh= 9.061E-05 alpha_mix =  0.700 |ddv_scf|^2 =  4.616E-08

      iter #   3 total cpu time :   213.3 secs   av.it.:  13.6
      thresh= 2.149E-05 alpha_mix =  0.700 |ddv_scf|^2 =  2.966E-09

      iter #   4 total cpu time :   214.5 secs   av.it.:  13.3
      thresh= 5.446E-06 alpha_mix =  0.700 |ddv_scf|^2 =  3.030E-13

      iter #   5 total cpu time :   215.7 secs   av.it.:  13.7
      thresh= 5.504E-08 alpha_mix =  0.700 |ddv_scf|^2 =  6.538E-15

     End of self-consistent calculation

     Convergence has been achieved 


     Representation #   4 mode #   4

     Self-consistent Calculation

      iter #   1 total cpu time :   216.6 secs   av.it.:   7.4
      thresh= 1.000E-02 alpha_mix =  0.700 |ddv_scf|^2 =  5.084E-07

      iter #   2 total cpu time :   217.8 secs   av.it.:  13.2
      thresh= 7.131E-05 alpha_mix =  0.700 |ddv_scf|^2 =  3.676E-08

      iter #   3 total cpu time :   218.8 secs   av.it.:  11.3
      thresh= 1.917E-05 alpha_mix =  0.700 |ddv_scf|^2 =  4.232E-10

      iter #   4 total cpu time :   219.9 secs   av.it.:  12.0
      thresh= 2.057E-06 alpha_mix =  0.700 |ddv_scf|^2 =  9.545E-14

      iter #   5 total cpu time :   221.0 secs   av.it.:  13.6
      thresh= 3.090E-08 alpha_mix =  0.700 |ddv_scf|^2 =  4.545E-16

     End of self-consistent calculation

     Convergence has been achieved 


     Representation #   5 mode #   5

     Self-consistent Calculation

      iter #   1 total cpu time :   221.9 secs   av.it.:   8.5
      thresh= 1.000E-02 alpha_mix =  0.700 |ddv_scf|^2 =  2.871E-06

      iter #   2 total cpu time :   223.2 secs   av.it.:  14.3
      thresh= 1.694E-04 alpha_mix =  0.700 |ddv_scf|^2 =  4.024E-06

      iter #   3 total cpu time :   224.4 secs   av.it.:  13.5
      thresh= 2.006E-04 alpha_mix =  0.700 |ddv_scf|^2 =  1.834E-08

      iter #   4 total cpu time :   225.5 secs   av.it.:  13.5
      thresh= 1.354E-05 alpha_mix =  0.700 |ddv_scf|^2 =  1.759E-11

      iter #   5 total cpu time :   226.7 secs   av.it.:  14.3
      thresh= 4.194E-07 alpha_mix =  0.700 |ddv_scf|^2 =  4.416E-13

      iter #   6 total cpu time :   228.0 secs   av.it.:  14.3
      thresh= 6.645E-08 alpha_mix =  0.700 |ddv_scf|^2 =  4.217E-16

     End of self-consistent calculation

     Convergence has been achieved 


     Representation #   6 mode #   6

     Self-consistent Calculation

      iter #   1 total cpu time :   228.9 secs   av.it.:   8.2
      thresh= 1.000E-02 alpha_mix =  0.700 |ddv_scf|^2 =  4.793E-07

      iter #   2 total cpu time :   230.1 secs   av.it.:  14.1
      thresh= 6.923E-05 alpha_mix =  0.700 |ddv_scf|^2 =  1.791E-08

      iter #   3 total cpu time :   231.3 secs   av.it.:  13.4
      thresh= 1.338E-05 alpha_mix =  0.700 |ddv_scf|^2 =  1.276E-09

      iter #   4 total cpu time :   232.4 secs   av.it.:  12.3
      thresh= 3.572E-06 alpha_mix =  0.700 |ddv_scf|^2 =  5.720E-14

      iter #   5 total cpu time :   233.6 secs   av.it.:  14.9
      thresh= 2.392E-08 alpha_mix =  0.700 |ddv_scf|^2 =  1.009E-15

     End of self-consistent calculation

     Convergence has been achieved 
 
     Number of q in the star =    3
     List of q in the star:
          1   0.000000000  -0.577350269   0.000000000
          2  -0.500000000   0.288675135   0.000000000
          3   0.500000000   0.288675135   0.000000000

     Diagonalizing the dynamical matrix

     q = (    0.000000000  -0.577350269   0.000000000 ) 

 **************************************************************************
     freq (    1) =      14.169862 [THz] =     472.655719 [cm-1]
     freq (    2) =      18.722668 [THz] =     624.520988 [cm-1]
     freq (    3) =      19.024481 [THz] =     634.588388 [cm-1]
     freq (    4) =      39.886861 [THz] =    1330.482467 [cm-1]
     freq (    5) =      40.223371 [THz] =    1341.707248 [cm-1]
     freq (    6) =      41.673484 [THz] =    1390.077808 [cm-1]
 **************************************************************************

     Mode symmetry, D_2h (mmm)  point group:

     freq (   1-   1) =        472.7  [cm-1]   --> B_2g               
     freq (   2-   2) =        624.5  [cm-1]   --> B_1g               
     freq (   3-   3) =        634.6  [cm-1]   --> B_1u               
     freq (   4-   4) =       1330.5  [cm-1]   --> B_3u               
     freq (   5-   5) =       1341.7  [cm-1]   --> A_g                
     freq (   6-   6) =       1390.1  [cm-1]   --> B_2u               

     Calculation of q =    0.1666667   0.2886751   0.0000000
 
     Parallelization info
     --------------------
     sticks:   dense  smooth     PW     G-vecs:    dense   smooth      PW
     Min         118     118     40                12812    12812    2454
     Max         119     119     42                12835    12835    2463
     Sum         475     475    163                51311    51311    9831
 
     Using Slab Decomposition
 

     Title: 
     phonon calc.                                                               


     bravais-lattice index     =            4
     lattice parameter (alat)  =       4.6561  a.u.
     unit-cell volume          =     532.1899 (a.u.)^3
     number of atoms/cell      =            2
     number of atomic types    =            1
     number of electrons       =         8.00
     number of Kohn-Sham states=            8
     kinetic-energy cutoff     =      80.0000  Ry
     charge density cutoff     =     320.0000  Ry
     Exchange-correlation= PBE
                           (   1   4   3   4   0   0   0)

     celldm(1)=   4.656107  celldm(2)=   0.000000  celldm(3)=   6.087896
     celldm(4)=   0.000000  celldm(5)=   0.000000  celldm(6)=   0.000000

     crystal axes: (cart. coord. in units of alat)
               a(1) = (   1.000000   0.000000   0.000000 )  
               a(2) = (  -0.500000   0.866025   0.000000 )  
               a(3) = (   0.000000   0.000000   6.087896 )  

     reciprocal axes: (cart. coord. in units 2 pi/alat)
               b(1) = (  1.000000  0.577350  0.000000 )  
               b(2) = (  0.000000  1.154701  0.000000 )  
               b(3) = (  0.000000  0.000000  0.164260 )  


     PseudoPot. # 1 for C  read from file:
     ../pseudo/C.pbe-n-rrkjus_psl.0.1.UPF
     MD5 check sum: 96a6a315177d77e6c95bf6fd3870f9e3
     Pseudo is Ultrasoft + core correction, Zval =  4.0
     Generated using &quot;atomic&quot; code by A. Dal Corso  v.6.3MaX
     Using radial grid of 1073 points,  4 beta functions with: 
                l(1) =   0
                l(2) =   0
                l(3) =   1
                l(4) =   1
     Q(r) pseudized with 0 coefficients 


     atomic species   valence    mass     pseudopotential
        C              4.00    12.01070     C ( 1.00)

     24 Sym. Ops., with inversion, found



   Cartesian axes

     site n.     atom                  positions (alat units)
         1           C   tau(   1) = (   0.0000000   0.5773503   3.0439478  )
         2           C   tau(   2) = (   0.5000000   0.2886751   3.0439478  )

     number of k points=   156  Marzari-Vanderbilt smearing, width (Ry)=  0.0200

     Number of k-points >= 100: set verbosity='high' to print them.

     Dense  grid:    51311 G-vectors     FFT dimensions: (  27,  27, 162)

     Estimated max dynamical RAM per process >      13.67 MB

     Estimated total dynamical RAM >      54.67 MB
 ----2D----2D----2D----2D----2D----2D----2D----2D----2D----2D----2D----2D
  The code is running with the 2D cutoff
  Please refer to:
  Sohier, T., Calandra, M., & Mauri, F. (2017), 
  Density functional perturbation theory for gated two-dimensional heterostructu
 res:
  Theoretical developments and application to flexural phonons in graphene.
  Physical Review B, 96(7), 75448. https://doi.org/10.1103/PhysRevB.96.075448
 ----2D----2D----2D----2D----2D----2D----2D----2D----2D----2D----2D----2D

     Check: negative core charge=   -0.000001

     The potential is recalculated from file :
     ../tmp/_ph0/gr.save/charge-density


     negative rho (up, down):  2.304E-05 0.000E+00
     Starting wfcs are    8 atomic wfcs

     Band Structure Calculation
     Davidson diagonalization with overlap

     ethr =  1.25E-10,  avg # of iterations = 37.3

     total cpu time spent up to now is       39.3 secs

     End of band structure calculation

     Number of k-points >= 100: set verbosity='high' to print the bands.

     the Fermi energy is    -4.1997 ev

     Writing config to output data dir ../tmp/_ph0/gr.save/

     phonon calc.                                                               

     bravais-lattice index     =            4
     lattice parameter (alat)  =       4.6561  a.u.
     unit-cell volume          =     532.1899 (a.u.)^3
     number of atoms/cell      =            2
     number of atomic types    =            1
     kinetic-energy cut-off    =      80.0000  Ry
     charge density cut-off    =     320.0000  Ry
     convergence threshold     =      1.0E-14
     beta                      =       0.7000
     number of iterations used =            4
     Exchange-correlation= PBE
                           (   1   4   3   4   0   0   0)


     celldm(1)=    4.65611  celldm(2)=    0.00000  celldm(3)=    6.08790
     celldm(4)=    0.00000  celldm(5)=    0.00000  celldm(6)=    0.00000

     crystal axes: (cart. coord. in units of alat)
               a(1) = (  1.0000  0.0000  0.0000 )  
               a(2) = ( -0.5000  0.8660  0.0000 )  
               a(3) = (  0.0000  0.0000  6.0879 )  

     reciprocal axes: (cart. coord. in units 2 pi/alat)
               b(1) = (  1.0000  0.5774  0.0000 )  
               b(2) = (  0.0000  1.1547  0.0000 )  
               b(3) = (  0.0000  0.0000  0.1643 )  


     Atoms inside the unit cell: 

     Cartesian axes

     site n.  atom      mass           positions (alat units)
        1     C   12.0107   tau(    1) = (    0.00000    0.57735    3.04395  )
        2     C   12.0107   tau(    2) = (    0.50000    0.28868    3.04395  )

     Computing dynamical matrix for 
                    q = (   0.1666667   0.2886751   0.0000000 )
 
      4 Sym.Ops. (no q -> -q+G )


     G cutoff =  175.7260  (  12829 G-vectors)     FFT grid: ( 27, 27,162)

     number of k points=   156  Marzari-Vanderbilt smearing, width (Ry)=  0.0200

     PseudoPot. # 1 for C  read from file:
     ../pseudo/C.pbe-n-rrkjus_psl.0.1.UPF
     MD5 check sum: 96a6a315177d77e6c95bf6fd3870f9e3
     Pseudo is Ultrasoft + core correction, Zval =  4.0
     Generated using &quot;atomic&quot; code by A. Dal Corso  v.6.3MaX
     Using radial grid of 1073 points,  4 beta functions with: 
                l(1) =   0
                l(2) =   0
                l(3) =   1
                l(4) =   1
     Q(r) pseudized with 0 coefficients 


     Mode symmetry, C_2v (mm2)  point group:


     Atomic displacements:
     There are    6 irreducible representations

     Representation     1      1 modes -  To be done

     Representation     2      1 modes -  To be done

     Representation     3      1 modes -  To be done

     Representation     4      1 modes -  To be done

     Representation     5      1 modes -  To be done

     Representation     6      1 modes -  To be done



     Alpha used in Ewald sum =   2.8000

     negative rho (up, down):  2.304E-05 0.000E+00
     PHONON       :   3m59.61s CPU   4m 6.23s WALL



     Representation #   1 mode #   1

     Self-consistent Calculation

      iter #   1 total cpu time :   247.9 secs   av.it.:   9.3
      thresh= 1.000E-02 alpha_mix =  0.700 |ddv_scf|^2 =  1.094E-05

      iter #   2 total cpu time :   250.1 secs   av.it.:  14.0
      thresh= 3.307E-04 alpha_mix =  0.700 |ddv_scf|^2 =  3.510E-05

      iter #   3 total cpu time :   252.2 secs   av.it.:  12.7
      thresh= 5.924E-04 alpha_mix =  0.700 |ddv_scf|^2 =  2.210E-08

      iter #   4 total cpu time :   254.3 secs   av.it.:  14.4
[...]

          k = 0.0833 0.2406 0.0000 (  6444 PWs)   bands (ev):

   -22.6279 -10.6975 -10.5172  -9.3239   0.5767   1.4457   3.0865   3.8398

          k = 0.4167 0.8179 0.0000 (  6418 PWs)   bands (ev):

   -18.9224 -16.8323 -11.1733  -6.7094  -2.2815   3.8998   5.8726   6.7280

          k = 0.0833 0.3368 0.0000 (  6420 PWs)   bands (ev):

   -21.6633 -12.7685 -10.2101  -9.4004   1.6911   1.9092   2.8111   4.2737

          k = 0.4167 0.9141 0.0000 (  6418 PWs)   bands (ev):

   -19.7900 -15.9905 -10.5279  -7.4479  -1.4592   3.2411   4.5755   7.1344

          k = 0.0833 0.4330 0.0000 (  6423 PWs)   bands (ev):

   -20.4029 -14.8902 -10.8449  -8.0198  -0.5110   3.6526   4.0995   4.5725

          k = 0.4167 1.0104 0.0000 (  6423 PWs)   bands (ev):

   -20.4029 -14.8902 -10.8449  -8.0198  -0.5110   3.6526   4.0995   4.5725

          k = 0.0833 0.5292 0.0000 (  6418 PWs)   bands (ev):

   -18.9224 -16.8323 -11.1733  -6.7094  -2.2815   3.8998   5.8726   6.7280

          k = 0.4167 1.1066 0.0000 (  6439 PWs)   bands (ev):

   -20.7157 -13.7513 -11.7414  -8.3253   0.1990   3.2379   4.0928   5.7395

          k = 0.1667 0.2887 0.0000 (  6421 PWs)   bands (ev):

   -21.8234 -12.0253 -10.6857  -9.5793   1.6894   2.1489   4.2101   5.7792

          k = 0.5000 0.8660 0.0000 (  6386 PWs)   bands (ev):

   -18.5233 -17.4996 -10.6903  -6.6025  -2.5581   3.1634   6.8761   7.0299

          k = 0.1667 0.3849 0.0000 (  6439 PWs)   bands (ev):

   -20.7157 -13.7513 -11.7414  -8.3253   0.1990   3.2379   4.0928   5.7395

          k = 0.5000 0.9623 0.0000 (  6418 PWs)   bands (ev):

   -18.9224 -16.8323 -11.1733  -6.7094  -2.2815   3.8998   5.8726   6.7280

          k = 0.1667 0.4811 0.0000 (  6433 PWs)   bands (ev):

   -19.3396 -15.6620 -12.3166  -6.8974  -1.7152   5.1939   5.8127   5.9692

          k = 0.5000 1.0585 0.0000 (  6433 PWs)   bands (ev):

   -19.3396 -15.6620 -12.3166  -6.8974  -1.7152   5.1939   5.8127   5.9692

          k = 0.1667 0.5774 0.0000 (  6408 PWs)   bands (ev):

   -18.1025 -17.0994 -12.5013  -6.0039  -2.7845   5.7047   7.4363   7.6362

          k = 0.5000 1.1547 0.0000 (  6437 PWs)   bands (ev):

   -19.4874 -14.7842 -13.2254  -6.9816  -1.4170   4.9859   7.5231   8.0386

          k = 0.2500 0.4330 0.0000 (  6437 PWs)   bands (ev):

   -19.4874 -14.7842 -13.2254  -6.9816  -1.4170   4.9859   7.5231   8.0386

          k = 0.5833 1.0104 0.0000 (  6408 PWs)   bands (ev):

   -18.1025 -17.0994 -12.5013  -6.0039  -2.7845   5.7047   7.4363   7.6362

          k = 0.2500 0.5292 0.0000 (  6421 PWs)   bands (ev):

   -18.0644 -16.2062 -13.9324  -5.5947  -2.9386   6.6402   7.0775   7.9702

          k = 0.5833 1.1066 0.0000 (  6421 PWs)   bands (ev):

   -18.0644 -16.2062 -13.9324  -5.5947  -2.9386   6.6402   7.0775   7.9702

          k = 0.3333 0.5774 0.0000 (  6408 PWs)   bands (ev):

   -16.8463 -16.8463 -14.8315  -4.2376  -4.2376   8.6469   8.6469  11.2271

          k = 0.6667 1.1547 0.0000 (  6408 PWs)   bands (ev):

   -16.8463 -16.8463 -14.8315  -4.2376  -4.2376   8.6469   8.6469  11.2271

          k =-0.0833 0.1443 0.0000 (  6473 PWs)   bands (ev):

   -23.2780 -11.2859  -8.9906  -8.3261  -0.3147   0.5503   2.1898   3.1152

          k = 0.2500 0.7217 0.0000 (  6437 PWs)   bands (ev):

   -19.4874 -14.7842 -13.2254  -6.9816  -1.4170   4.9859   7.5231   8.0386

          k =-0.1667 0.1925 0.0000 (  6444 PWs)   bands (ev):

   -22.6279 -10.6975 -10.5172  -9.3239   0.5767   1.4457   3.0865   3.8398

          k = 0.1667 0.7698 0.0000 (  6439 PWs)   bands (ev):

   -20.7157 -13.7513 -11.7414  -8.3253   0.1990   3.2379   4.0928   5.7395

          k =-0.2500 0.2406 0.0000 (  6420 PWs)   bands (ev):

   -21.6633 -12.7685 -10.2101  -9.4004   1.6911   1.9092   2.8111   4.2737

          k = 0.0833 0.8179 0.0000 (  6420 PWs)   bands (ev):

   -21.6633 -12.7685 -10.2101  -9.4004   1.6911   1.9092   2.8111   4.2737

          k =-0.3333 0.2887 0.0000 (  6423 PWs)   bands (ev):

   -20.4029 -14.8902 -10.8449  -8.0198  -0.5110   3.6526   4.0995   4.5725

          k = 0.0000 0.8660 0.0000 (  6429 PWs)   bands (ev):

   -22.3047 -11.6892 -10.1409  -9.3212   1.0202   1.8784   3.0329   3.5006

          k =-0.4167 0.3368 0.0000 (  6418 PWs)   bands (ev):

   -18.9224 -16.8323 -11.1733  -6.7094  -2.2815   3.8998   5.8726   6.7280

          k =-0.0833 0.9141 0.0000 (  6444 PWs)   bands (ev):

   -22.6279 -10.6975 -10.5172  -9.3239   0.5767   1.4457   3.0865   3.8398

          k =-0.1667 0.2887 0.0000 (  6421 PWs)   bands (ev):

   -21.8234 -12.0253 -10.6857  -9.5793   1.6894   2.1489   4.2101   5.7792

          k = 0.1667 0.8660 0.0000 (  6421 PWs)   bands (ev):

   -21.8234 -12.0253 -10.6857  -9.5793   1.6894   2.1489   4.2101   5.7792

          k =-0.2500 0.3368 0.0000 (  6439 PWs)   bands (ev):

   -20.7157 -13.7513 -11.7414  -8.3253   0.1990   3.2379   4.0928   5.7395

          k = 0.0833 0.9141 0.0000 (  6444 PWs)   bands (ev):

   -22.6279 -10.6975 -10.5172  -9.3239   0.5767   1.4457   3.0865   3.8398

          k =-0.3333 0.3849 0.0000 (  6433 PWs)   bands (ev):

   -19.3396 -15.6620 -12.3166  -6.8974  -1.7152   5.1939   5.8127   5.9692

          k = 0.0000 0.9623 0.0000 (  6481 PWs)   bands (ev):

   -23.1150 -11.0924  -9.5936  -8.4413  -0.0921   0.7745   2.4130   3.3352

          k =-0.4167 0.4330 0.0000 (  6408 PWs)   bands (ev):

   -18.1025 -17.0994 -12.5013  -6.0039  -2.7845   5.7047   7.4363   7.6362

          k =-0.0833 1.0104 0.0000 (  6473 PWs)   bands (ev):

   -23.2780 -11.2859  -8.9906  -8.3261  -0.3147   0.5503   2.1898   3.1152

          k =-0.2500 0.4330 0.0000 (  6437 PWs)   bands (ev):

   -19.4874 -14.7842 -13.2254  -6.9816  -1.4170   4.9859   7.5231   8.0386

          k = 0.0833 1.0104 0.0000 (  6473 PWs)   bands (ev):

   -23.2780 -11.2859  -8.9906  -8.3261  -0.3147   0.5503   2.1898   3.1152

          k =-0.3333 0.4811 0.0000 (  6421 PWs)   bands (ev):

   -18.0644 -16.2062 -13.9324  -5.5947  -2.9386   6.6402   7.0775   7.9702

          k = 0.0000 1.0585 0.0000 (  6493 PWs)   bands (ev):

   -23.6049 -11.6758  -7.9593  -7.6488  -0.7607   0.1005   1.7409   2.6708

          k =-0.3333 0.5774 0.0000 (  6408 PWs)   bands (ev):

   -16.8463 -16.8463 -14.8315  -4.2376  -4.2376   8.6469   8.6469  11.2271

          k =-0.0000 1.1547 0.0000 (  6489 PWs)   bands (ev):

   -23.7689 -11.8721  -7.3105  -7.3105  -0.9836  -0.1247   1.5167   2.4481

     the Fermi energy is    -4.1997 ev

     Writing config to output data dir ../tmp/_ph0/gr.save/

     phonon calc.                                                               

     bravais-lattice index     =            4
     lattice parameter (alat)  =       4.6561  a.u.
     unit-cell volume          =     532.1899 (a.u.)^3
     number of atoms/cell      =            2
     number of atomic types    =            1
     kinetic-energy cut-off    =      80.0000  Ry
     charge density cut-off    =     320.0000  Ry
     convergence threshold     =      1.0E-14
     beta                      =       0.7000
     number of iterations used =            4
     Exchange-correlation= PBE
                           (   1   4   3   4   0   0   0)


     celldm(1)=    4.65611  celldm(2)=    0.00000  celldm(3)=    6.08790
     celldm(4)=    0.00000  celldm(5)=    0.00000  celldm(6)=    0.00000

     crystal axes: (cart. coord. in units of alat)
               a(1) = (  1.0000  0.0000  0.0000 )  
               a(2) = ( -0.5000  0.8660  0.0000 )  
               a(3) = (  0.0000  0.0000  6.0879 )  

     reciprocal axes: (cart. coord. in units 2 pi/alat)
               b(1) = (  1.0000  0.5774  0.0000 )  
               b(2) = (  0.0000  1.1547  0.0000 )  
               b(3) = (  0.0000  0.0000  0.1643 )  


     Atoms inside the unit cell: 

     Cartesian axes

     site n.  atom      mass           positions (alat units)
        1     C   12.0107   tau(    1) = (    0.00000    0.57735    3.04395  )
        2     C   12.0107   tau(    2) = (    0.50000    0.28868    3.04395  )

     Computing dynamical matrix for 
                    q = (   0.3333333   0.5773503   0.0000000 )
 
     12 Sym.Ops. (no q -> -q+G )


     G cutoff =  175.7260  (  12829 G-vectors)     FFT grid: ( 27, 27,162)

     number of k points=    62  Marzari-Vanderbilt smearing, width (Ry)=  0.0200

     PseudoPot. # 1 for C  read from file:
     ../pseudo/C.pbe-n-rrkjus_psl.0.1.UPF
     MD5 check sum: 96a6a315177d77e6c95bf6fd3870f9e3
     Pseudo is Ultrasoft + core correction, Zval =  4.0
     Generated using &quot;atomic&quot; code by A. Dal Corso  v.6.3MaX
     Using radial grid of 1073 points,  4 beta functions with: 
                l(1) =   0
                l(2) =   0
                l(3) =   1
                l(4) =   1
     Q(r) pseudized with 0 coefficients 


     Mode symmetry, D_3h (-62m) point group:


     Atomic displacements:
     There are    4 irreducible representations

     Representation     1      1 modes -  To be done

     Representation     2      1 modes -  To be done

     Representation     3      2 modes -  To be done

     Representation     4      2 modes -  To be done



     Alpha used in Ewald sum =   2.8000

     negative rho (up, down):  2.304E-05 0.000E+00
     PHONON       :   8m14.20s CPU   8m28.22s WALL



     Representation #   1 mode #   1

     Self-consistent Calculation

      iter #   1 total cpu time :   508.9 secs   av.it.:   8.7
      thresh= 1.000E-02 alpha_mix =  0.700 |ddv_scf|^2 =  2.240E-06

      iter #   2 total cpu time :   509.8 secs   av.it.:  14.3
      thresh= 1.497E-04 alpha_mix =  0.700 |ddv_scf|^2 =  3.046E-07

      iter #   3 total cpu time :   510.7 secs   av.it.:  14.0
      thresh= 5.519E-05 alpha_mix =  0.700 |ddv_scf|^2 =  4.778E-09

      iter #   4 total cpu time :   511.5 secs   av.it.:  12.5
      thresh= 6.912E-06 alpha_mix =  0.700 |ddv_scf|^2 =  8.387E-13

      iter #   5 total cpu time :   512.4 secs   av.it.:  15.0
      thresh= 9.158E-08 alpha_mix =  0.700 |ddv_scf|^2 =  7.781E-15

     End of self-consistent calculation

     Convergence has been achieved 


     Representation #   2 mode #   2

     Self-consistent Calculation

      iter #   1 total cpu time :   513.0 secs   av.it.:   6.5
      thresh= 1.000E-02 alpha_mix =  0.700 |ddv_scf|^2 =  2.956E-07

      iter #   2 total cpu time :   513.7 secs   av.it.:  10.5
      thresh= 5.437E-05 alpha_mix =  0.700 |ddv_scf|^2 =  2.658E-08

      iter #   3 total cpu time :   514.4 secs   av.it.:   9.4
      thresh= 1.630E-05 alpha_mix =  0.700 |ddv_scf|^2 =  4.873E-13

      iter #   4 total cpu time :   515.3 secs   av.it.:  13.9
      thresh= 6.981E-08 alpha_mix =  0.700 |ddv_scf|^2 =  1.212E-14

      iter #   5 total cpu time :   516.1 secs   av.it.:  13.2
      thresh= 1.101E-08 alpha_mix =  0.700 |ddv_scf|^2 =  1.550E-16

     End of self-consistent calculation

     Convergence has been achieved 


     Representation #   3 modes #   3   4

     Self-consistent Calculation

      iter #   1 total cpu time :   517.5 secs   av.it.:   9.0
      thresh= 1.000E-02 alpha_mix =  0.700 |ddv_scf|^2 =  7.072E-07

      iter #   2 total cpu time :   519.5 secs   av.it.:  15.6
      thresh= 8.409E-05 alpha_mix =  0.700 |ddv_scf|^2 =  9.629E-07

      iter #   3 total cpu time :   521.3 secs   av.it.:  14.9
      thresh= 9.813E-05 alpha_mix =  0.700 |ddv_scf|^2 =  5.065E-09

      iter #   4 total cpu time :   523.1 secs   av.it.:  15.1
      thresh= 7.117E-06 alpha_mix =  0.700 |ddv_scf|^2 =  5.406E-11

      iter #   5 total cpu time :   525.0 secs   av.it.:  15.2
      thresh= 7.352E-07 alpha_mix =  0.700 |ddv_scf|^2 =  1.490E-14

      iter #   6 total cpu time :   526.9 secs   av.it.:  15.6
      thresh= 1.221E-08 alpha_mix =  0.700 |ddv_scf|^2 =  2.464E-16

     End of self-consistent calculation

     Convergence has been achieved 


     Representation #   4 modes #   5   6

     Self-consistent Calculation

      iter #   1 total cpu time :   528.2 secs   av.it.:   8.0
      thresh= 1.000E-02 alpha_mix =  0.700 |ddv_scf|^2 =  1.544E-07

      iter #   2 total cpu time :   530.0 secs   av.it.:  14.8
      thresh= 3.929E-05 alpha_mix =  0.700 |ddv_scf|^2 =  1.037E-08

      iter #   3 total cpu time :   531.7 secs   av.it.:  13.4
      thresh= 1.018E-05 alpha_mix =  0.700 |ddv_scf|^2 =  2.454E-10

      iter #   4 total cpu time :   533.5 secs   av.it.:  14.1
      thresh= 1.567E-06 alpha_mix =  0.700 |ddv_scf|^2 =  2.541E-14

      iter #   5 total cpu time :   535.4 secs   av.it.:  15.4
      thresh= 1.594E-08 alpha_mix =  0.700 |ddv_scf|^2 =  2.931E-16

     End of self-consistent calculation

     Convergence has been achieved 
 
     Number of q in the star =    2
     List of q in the star:
          1   0.333333333   0.577350269   0.000000000
          2  -0.333333333   0.577350269   0.000000000

     Diagonalizing the dynamical matrix

     q = (    0.333333333   0.577350269   0.000000000 ) 

 **************************************************************************
     freq (    1) =      16.024065 [THz] =     534.505284 [cm-1]
     freq (    2) =      16.024065 [THz] =     534.505284 [cm-1]
     freq (    3) =      29.832627 [THz] =     995.109314 [cm-1]
     freq (    4) =      36.358477 [THz] =    1212.788244 [cm-1]
     freq (    5) =      36.358477 [THz] =    1212.788244 [cm-1]
     freq (    6) =      36.407815 [THz] =    1214.433974 [cm-1]
 **************************************************************************

     Mode symmetry, D_3h (-62m) point group:

     freq (   1-   2) =        534.5  [cm-1]   --> E''                
     freq (   3-   3) =        995.1  [cm-1]   --> A'_2               
     freq (   4-   5) =       1212.8  [cm-1]   --> E'                 
     freq (   6-   6) =       1214.4  [cm-1]   --> A'_1               
 
     init_run     :      0.81s CPU      0.81s WALL (       6 calls)
     electrons    :     62.91s CPU     63.81s WALL (       6 calls)

     Called by init_run:
     wfcinit      :      0.00s CPU      0.00s WALL (       6 calls)
     potinit      :      0.05s CPU      0.05s WALL (       6 calls)
     hinit0       :      0.20s CPU      0.20s WALL (       6 calls)

     Called by electrons:
     c_bands      :     62.91s CPU     63.81s WALL (       6 calls)
     v_of_rho     :      0.05s CPU      0.05s WALL (       7 calls)
     newd         :      0.03s CPU      0.03s WALL (       7 calls)

     Called by c_bands:
     init_us_2    :      3.05s CPU      3.25s WALL (   25578 calls)
     init_us_2:cp :      3.01s CPU      3.21s WALL (   25578 calls)
     cegterg      :     59.76s CPU     60.57s WALL (    2142 calls)

     Called by *egterg:
     cdiaghg      :      3.08s CPU      3.13s WALL (   34989 calls)
     h_psi        :    367.58s CPU    375.73s WALL (  315271 calls)
     s_psi        :     15.71s CPU     16.15s WALL (  611185 calls)
     g_psi        :      0.36s CPU      0.37s WALL (   34085 calls)

     Called by h_psi:
     h_psi:calbec :      9.95s CPU     10.17s WALL (  315271 calls)
     vloc_psi     :    346.55s CPU    354.27s WALL (  315271 calls)
     add_vuspsi   :      8.17s CPU      8.38s WALL (  315271 calls)

     General routines
     calbec       :     19.67s CPU     20.24s WALL (  649683 calls)
     fft          :      1.07s CPU      1.15s WALL (    4379 calls)
     ffts         :      0.76s CPU      0.79s WALL (    3404 calls)
     fftw         :    352.05s CPU    361.08s WALL ( 2557518 calls)
     davcio       :      5.92s CPU      6.80s WALL (   99106 calls)
 
     Parallel routines
 
     PHONON       :   8m40.68s CPU   8m55.41s WALL

     INITIALIZATION: 
     phq_setup    :      0.12s CPU      0.13s WALL (       7 calls)
     phq_init     :      7.36s CPU      7.56s WALL (       7 calls)
 
     phq_init     :      7.36s CPU      7.56s WALL (       7 calls)
     set_drhoc    :      0.94s CPU      0.94s WALL (      21 calls)
     init_vloc    :      0.04s CPU      0.04s WALL (       7 calls)
     init_us_1    :      0.10s CPU      0.10s WALL (       7 calls)
     init_us_2    :      3.05s CPU      3.25s WALL (   25578 calls)
     newd         :      0.03s CPU      0.03s WALL (       7 calls)
     dvanqq       :      0.47s CPU      0.47s WALL (       7 calls)
     drho         :      5.18s CPU      5.32s WALL (       7 calls)
 
     DYNAMICAL MATRIX:
     dynmat0      :      0.99s CPU      1.01s WALL (       7 calls)
     phqscf       :    449.30s CPU    462.82s WALL (       7 calls)
     dynmatrix    :      0.00s CPU      0.00s WALL (       7 calls)
 
     phqscf       :    449.30s CPU    462.82s WALL (       7 calls)
     solve_linter :    448.13s CPU    461.55s WALL (      38 calls)
     drhodv       :      1.15s CPU      1.24s WALL (      38 calls)
 
     dynmat0      :      0.99s CPU      1.01s WALL (       7 calls)
     dynmat_us    :      0.30s CPU      0.31s WALL (       7 calls)
     d2ionq       :      0.01s CPU      0.01s WALL (       7 calls)
     dynmatcc     :      0.68s CPU      0.68s WALL (       7 calls)
 
     dynmat_us    :      0.30s CPU      0.31s WALL (       7 calls)
     addusdynmat  :      0.00s CPU      0.00s WALL (       7 calls)
 
     phqscf       :    449.30s CPU    462.82s WALL (       7 calls)
     solve_linter :    448.13s CPU    461.55s WALL (      38 calls)
 
     solve_linter :    448.13s CPU    461.55s WALL (      38 calls)
     dvqpsi_us    :      8.76s CPU      9.06s WALL (    2826 calls)
     sth_kernel   :    428.90s CPU    441.53s WALL (     229 calls)
     apply_dpot_b :     21.61s CPU     23.41s WALL (   14948 calls)
     ortho        :      2.73s CPU      2.95s WALL (   17774 calls)
     cgsolve      :    366.04s CPU    374.59s WALL (   17774 calls)
     incdrhoscf   :     28.41s CPU     29.34s WALL (   17774 calls)
     addusddens   :      1.80s CPU      1.84s WALL (     267 calls)
     dv_of_drho   :      1.66s CPU      1.68s WALL (     248 calls)
     mix_pot      :      0.34s CPU      0.46s WALL (     229 calls)
     ef_shift     :      0.01s CPU      0.01s WALL (      20 calls)
     ef_shift_wfc :      0.01s CPU      0.01s WALL (       4 calls)
     localdos     :      0.12s CPU      0.12s WALL (       4 calls)
     psymdvscf    :      4.05s CPU      4.08s WALL (     229 calls)
     newdq        :      1.47s CPU      1.66s WALL (     229 calls)
     adddvscf     :      1.49s CPU      1.61s WALL (   14948 calls)
     drhodvus     :      0.02s CPU      0.03s WALL (      38 calls)
 
     dvqpsi_us    :      8.76s CPU      9.06s WALL (    2826 calls)
     dvqpsi_us_on :      0.55s CPU      0.56s WALL (    2826 calls)
 
     cgsolve      :    366.04s CPU    374.59s WALL (   17774 calls)
     ch_psi       :    356.14s CPU    364.40s WALL (  278140 calls)
 
     ch_psi       :    356.14s CPU    364.40s WALL (  278140 calls)
     h_psi        :    367.58s CPU    375.73s WALL (  315271 calls)
     last         :     27.08s CPU     27.70s WALL (  278140 calls)
 
     h_psi        :    367.58s CPU    375.73s WALL (  315271 calls)
     add_vuspsi   :      8.17s CPU      8.38s WALL (  315271 calls)
 
     incdrhoscf   :     28.41s CPU     29.34s WALL (   17774 calls)
     addusdbec    :      1.44s CPU      1.48s WALL (   20600 calls)
 
     drhodvus     :      0.02s CPU      0.03s WALL (      38 calls)
 
      General routines
     calbec       :     19.67s CPU     20.24s WALL (  649683 calls)
     fft          :      1.07s CPU      1.15s WALL (    4379 calls)
     ffts         :      0.76s CPU      0.79s WALL (    3404 calls)
     fftw         :    352.05s CPU    361.08s WALL ( 2557518 calls)
     davcio       :      5.92s CPU      6.80s WALL (   99106 calls)
     write_rec    :      0.13s CPU      0.15s WALL (     267 calls)
 
 
     PHONON       :   8m40.68s CPU   8m55.41s WALL

 
   This run was terminated on:   6:58:42   6Feb2022            

=------------------------------------------------------------------------------=
   JOB DONE.
=------------------------------------------------------------------------------=
