
     Program BANDS v.6.7MaX starts on  1Jan2023 at 16:20:22 

     This program is part of the open-source Quantum ESPRESSO suite
     for quantum simulation of materials; please cite
         "P. Giannozzi et al., J. Phys.:Condens. Matter 21 395502 (2009);
         "P. Giannozzi et al., J. Phys.:Condens. Matter 29 465901 (2017);
          URL http://www.quantum-espresso.org", 
     in publications or presentations arising from this work. More details at
     http://www.quantum-espresso.org/quote

     Parallel version (MPI), running on     4 processors

     MPI processes distributed on     1 nodes
     R & G space division:  proc/nbgrp/npool/nimage =       4

     Reading xml data from directory:

     ../tmp/mos2.save/
     file Mo.rel-pbe-spn-rrkjus_psl.1.0.0.UPF: wavefunction(s)  4S renormalized

     IMPORTANT: XC functional enforced from input :
     Exchange-correlation= PBE
                           (   1   4   3   4   0   0   0)
     Any further DFT definition will be discarded
     Please, verify this is what you really want


     Parallelization info
     --------------------
     sticks:   dense  smooth     PW     G-vecs:    dense   smooth      PW
     Min         148     148     42                18582    18582    2966
     Max         149     149     43                18603    18603    2970
     Sum         595     595    169                74365    74365   11873


     negative rho (up, down):  2.832E-03 0.000E+00
     Reading collected, re-writing distributed wavefunctions
     high-symmetry point:  0.0000 0.0000 0.0000   x coordinate   0.0000
     high-symmetry point:  0.6667 0.0000 0.0000   x coordinate   0.6667
     high-symmetry point:  0.5000 0.2887 0.0000   x coordinate   1.0000
     high-symmetry point:  0.0000 0.0000 0.0000   x coordinate   1.5774

     Plottable bands (eV) written to file mos2.bands.gnu
     Bands written to file mos2.bands

 **************************************************************************

                    xk=(   0.00000,   0.00000,   0.00000  )

     double point group D_3h (-62m)
     there are  9 classes and  3 irreducible representations
     the character table:

       E     -E    2C3   -2C3   3C2'  s_h  2S3   -2S3   3s_v
                               -3C2' -s_h'             -3s_v
G_7    2.00 -2.00  1.00 -1.00  0.00  0.00  1.73 -1.73  0.00
G_8    2.00 -2.00  1.00 -1.00  0.00  0.00 -1.73  1.73  0.00
G_9    2.00 -2.00 -2.00  2.00  0.00  0.00  0.00  0.00  0.00

     the symmetry operations in each class and the name of the first element:

     E             1
                                                                 
     -E           -1
                                                                 
     2C3           3    4
                                                                 
     -2C3         -3   -4
                                                                 
      3C2'-3C2'    2   -6    5   -2   -5    6
                                                                 
     2S3           9   10
                                                                 
     -2S3         -9  -10
                                                                 
      3s_v-3s_v    7   -7
                                                                 
      3s_v-3s_v    8   -8  -11  -12   11   12
                                                                 

     Band symmetry, D_3h (-62m) double point group:

     e(  1 -  2) =    -61.82282  eV     2   --> G_7            
     e(  3 -  4) =    -37.54842  eV     2   --> G_8            
     e(  5 -  6) =    -35.11528  eV     2   --> G_8            
     e(  7 -  8) =    -34.96483  eV     2   --> G_9            
     e(  9 - 10) =    -15.03323  eV     2   --> G_7            
     e( 11 - 12) =    -13.74077  eV     2   --> G_8            
     e( 13 - 14) =     -6.56654  eV     2   --> G_7            
     e( 15 - 16) =     -3.58616  eV     2   --> G_9            
     e( 17 - 18) =     -3.52119  eV     2   --> G_8            
     e( 19 - 20) =     -2.73981  eV     2   --> G_8            
     e( 21 - 22) =     -2.49160  eV     2   --> G_7            
     e( 23 - 24) =     -2.40668  eV     2   --> G_9            
     e( 25 - 26) =     -0.97357  eV     2   --> G_7            
     e( 27 - 28) =      1.75919  eV     2   --> G_7            
     e( 29 - 30) =      1.83852  eV     2   --> G_9            
     e( 31 - 34) =      2.04586  eV     4   --> G_8            
     e( 31 - 34) =      2.04586  eV     4   --> G_9            
     e( 35 - 36) =      4.00569  eV     2   --> G_7            
     e( 37 - 38) =      4.30740  eV     2   --> G_8            
     e( 39 - 40) =      4.74853  eV     2   --> G_7            
     e( 41 - 42) =      5.40817  eV     2   --> G_7            
     e( 43 - 44) =      5.91735  eV     2   --> G_8            
     e( 45 - 46) =      7.07611  eV     2   --> G_7            
     e( 47 - 48) =      8.04454  eV     2   --> G_8            
     e( 49 - 50) =      8.78883  eV     2   --> G_8            
     e( 51 - 52) =      9.76631  eV     2   --> G_8            
     e( 53 - 54) =      9.84484  eV     2   --> G_9            
     e( 55 - 56) =     10.03791  eV     2   --> G_7            
     e( 57 - 58) =     11.79316  eV     2   --> G_7            
     e( 59 - 60) =     11.81713  eV     2   --> G_9            

 **************************************************************************

 **************************************************************************

                    xk=(   0.01667,   0.00000,   0.00000  )

     double point group C_s (m)    
     there are  4 classes and  2 irreducible representations
     the character table:

       E     -E    s     -s   
                              
G_3    1.00 -1.00  0.00  0.00
G_4    1.00 -1.00  0.00  0.00

     imaginary part

       E     -E    s     -s   
                              
G_3    0.00  0.00  1.00 -1.00
G_4    0.00  0.00 -1.00  1.00

     the symmetry operations in each class and the name of the first element:

     E             1
                                                                 
     -E           -1
                                                                 
     s             2
                                                                 
     -s           -2
                                                                 

     Band symmetry, C_s (m)     double point group:

     e(  1 -  2) =    -61.82279  eV     2   --> G_3            
     e(  1 -  2) =    -61.82279  eV     2   --> G_4            
     e(  3 -  4) =    -37.54863  eV     2   --> G_3            
     e(  3 -  4) =    -37.54863  eV     2   --> G_4            
     e(  5 -  6) =    -35.11537  eV     2   --> G_3            
     e(  5 -  6) =    -35.11537  eV     2   --> G_4            
     e(  7 -  8) =    -34.96537  eV     2   --> G_3            
     e(  7 -  8) =    -34.96537  eV     2   --> G_4            
     e(  9 - 10) =    -15.03013  eV     2   --> G_3            
     e(  9 - 10) =    -15.03013  eV     2   --> G_4            
     e( 11 - 12) =    -13.73948  eV     2   --> G_3            
     e( 11 - 12) =    -13.73948  eV     2   --> G_4            
     e( 13 - 14) =     -6.56291  eV     2   --> G_3            
     e( 13 - 14) =     -6.56291  eV     2   --> G_4            
     e( 15 - 15) =     -3.58874  eV     1   --> G_4            
     e( 16 - 16) =     -3.58848  eV     1   --> G_3            
     e( 17 - 17) =     -3.52300  eV     1   --> G_3            
     e( 18 - 18) =     -3.52274  eV     1   --> G_4            
     e( 19 - 20) =     -2.77129  eV     2   --> G_3            
     e( 19 - 20) =     -2.77129  eV     2   --> G_4            
     e( 21 - 21) =     -2.48190  eV     1   --> G_3            
     e( 22 - 22) =     -2.48110  eV     1   --> G_4            
     e( 23 - 23) =     -2.39540  eV     1   --> G_4            
     e( 24 - 24) =     -2.39466  eV     1   --> G_3            
     e( 25 - 26) =     -0.97489  eV     2   --> G_3            
     e( 25 - 26) =     -0.97489  eV     2   --> G_4            
     e( 27 - 27) =      1.75880  eV     1   --> G_3            
     e( 28 - 28) =      1.75950  eV     1   --> G_4            
     e( 29 - 29) =      1.83835  eV     1   --> G_4            
     e( 30 - 30) =      1.83897  eV     1   --> G_3            
     e( 31 - 31) =      2.03479  eV     1   --> G_4            
     e( 32 - 32) =      2.03759  eV     1   --> G_3            
     e( 33 - 33) =      2.04092  eV     1   --> G_3            
     e( 34 - 34) =      2.04367  eV     1   --> G_4            
     e( 35 - 36) =      4.01059  eV     2   --> G_3            
     e( 35 - 36) =      4.01059  eV     2   --> G_4            
     e( 37 - 38) =      4.31155  eV     2   --> G_3            
     e( 37 - 38) =      4.31155  eV     2   --> G_4            
     e( 39 - 40) =      4.75560  eV     2   --> G_3            
     e( 39 - 40) =      4.75560  eV     2   --> G_4            
     e( 41 - 42) =      5.42096  eV     2   --> G_3            
     e( 41 - 42) =      5.42096  eV     2   --> G_4            
     e( 43 - 44) =      5.92132  eV     2   --> G_3            
     e( 43 - 44) =      5.92132  eV     2   --> G_4            
     e( 45 - 46) =      7.08029  eV     2   --> G_3            
     e( 45 - 46) =      7.08029  eV     2   --> G_4            
     e( 47 - 48) =      8.05975  eV     2   --> G_3            
     e( 47 - 48) =      8.05975  eV     2   --> G_4            
     e( 49 - 50) =      8.79248  eV     2   --> G_3            
     e( 49 - 50) =      8.79248  eV     2   --> G_4            
     e( 51 - 51) =      9.75736  eV     1   --> G_4            
     e( 52 - 52) =      9.75759  eV     1   --> G_3            
     e( 53 - 54) =      9.83983  eV     2   --> G_3            
     e( 53 - 54) =      9.83983  eV     2   --> G_4            
     e( 55 - 55) =     10.05669  eV     1   --> G_3            
     e( 56 - 56) =     10.05686  eV     1   --> G_4            
     e( 57 - 57) =     11.77259  eV     1   --> G_3            
     e( 58 - 58) =     11.77385  eV     1   --> G_4            
     e( 59 - 59) =     11.80918  eV     1   --> G_4            
     e( 60 - 60) =     11.81076  eV     1   --> G_3            

 **************************************************************************

 **************************************************************************

                    xk=(   0.03333,   0.00000,   0.00000  )

     Band symmetry, C_s (m)     double point group:

     e(  1 -  2) =    -61.82255  eV     2   --> G_3            
     e(  1 -  2) =    -61.82255  eV     2   --> G_4            
     e(  3 -  4) =    -37.54925  eV     2   --> G_3            
     e(  3 -  4) =    -37.54925  eV     2   --> G_4            
     e(  5 -  6) =    -35.11562  eV     2   --> G_3            
     e(  5 -  6) =    -35.11562  eV     2   --> G_4            
     e(  7 -  8) =    -34.96693  eV     2   --> G_3            
     e(  7 -  8) =    -34.96693  eV     2   --> G_4            
     e(  9 - 10) =    -15.02084  eV     2   --> G_3            
     e(  9 - 10) =    -15.02084  eV     2   --> G_4            
     e( 11 - 12) =    -13.73561  eV     2   --> G_3            
     e( 11 - 12) =    -13.73561  eV     2   --> G_4            
     e( 13 - 14) =     -6.55207  eV     2   --> G_3            
     e( 13 - 14) =     -6.55207  eV     2   --> G_4            
     e( 15 - 15) =     -3.60123  eV     1   --> G_4            
     e( 16 - 16) =     -3.59945  eV     1   --> G_3            
     e( 17 - 17) =     -3.52417  eV     1   --> G_3            
     e( 18 - 18) =     -3.52238  eV     1   --> G_4            
     e( 19 - 19) =     -2.84419  eV     1   --> G_4            
     e( 20 - 20) =     -2.84397  eV     1   --> G_3            
     e( 21 - 21) =     -2.48246  eV     1   --> G_3            
     e( 22 - 22) =     -2.47904  eV     1   --> G_4            
     e( 23 - 23) =     -2.35361  eV     1   --> G_4            
     e( 24 - 24) =     -2.35028  eV     1   --> G_3            
     e( 25 - 26) =     -0.97888  eV     2   --> G_3            
     e( 25 - 26) =     -0.97888  eV     2   --> G_4            
     e( 27 - 27) =      1.75277  eV     1   --> G_3            
     e( 28 - 28) =      1.75760  eV     1   --> G_4            
     e( 29 - 29) =      1.84109  eV     1   --> G_4            
     e( 30 - 30) =      1.84515  eV     1   --> G_3            
     e( 31 - 31) =      2.00516  eV     1   --> G_4            
     e( 32 - 32) =      2.01095  eV     1   --> G_3            
     e( 33 - 33) =      2.02901  eV     1   --> G_3            
     e( 34 - 34) =      2.03427  eV     1   --> G_4            
     e( 35 - 36) =      4.02511  eV     2   --> G_3            
     e( 35 - 36) =      4.02511  eV     2   --> G_4            
     e( 37 - 38) =      4.32399  eV     2   --> G_3            
     e( 37 - 38) =      4.32399  eV     2   --> G_4            
     e( 39 - 40) =      4.77621  eV     2   --> G_3            
     e( 39 - 40) =      4.77621  eV     2   --> G_4            
     e( 41 - 42) =      5.45942  eV     2   --> G_3            
     e( 41 - 42) =      5.45942  eV     2   --> G_4            
     e( 43 - 44) =      5.93322  eV     2   --> G_3            
     e( 43 - 44) =      5.93322  eV     2   --> G_4            
     e( 45 - 46) =      7.09283  eV     2   --> G_3            
     e( 45 - 46) =      7.09283  eV     2   --> G_4            
     e( 47 - 48) =      8.10486  eV     2   --> G_3            
     e( 47 - 48) =      8.10486  eV     2   --> G_4            
     e( 49 - 50) =      8.80343  eV     2   --> G_3            
     e( 49 - 50) =      8.80343  eV     2   --> G_4            
     e( 51 - 51) =      9.71541  eV     1   --> G_4            
     e( 52 - 52) =      9.71670  eV     1   --> G_3            
     e( 53 - 53) =      9.85367  eV     1   --> G_3            
     e( 54 - 54) =      9.85390  eV     1   --> G_4            
     e( 55 - 55) =     10.09929  eV     1   --> G_3            
     e( 56 - 56) =     10.10034  eV     1   --> G_4            
     e( 57 - 57) =     11.69361  eV     1   --> G_3            
     e( 58 - 58) =     11.69602  eV     1   --> G_4            
     e( 59 - 59) =     11.80767  eV     1   --> G_4            
     e( 60 - 60) =     11.81166  eV     1   --> G_3            

 **************************************************************************

 **************************************************************************

                    xk=(   0.05000,   0.00000,   0.00000  )

     Band symmetry, C_s (m)     double point group:

     e(  1 -  2) =    -61.82211  eV     2   --> G_3            
     e(  1 -  2) =    -61.82211  eV     2   --> G_4            
     e(  3 -  4) =    -37.55029  eV     2   --> G_3            
     e(  3 -  4) =    -37.55029  eV     2   --> G_4            
     e(  5 -  6) =    -35.11604  eV     2   --> G_3            
     e(  5 -  6) =    -35.11604  eV     2   --> G_4            
     e(  7 -  8) =    -34.96951  eV     2   --> G_3            
     e(  7 -  8) =    -34.96951  eV     2   --> G_4            
     e(  9 - 10) =    -15.00541  eV     2   --> G_3            
     e(  9 - 10) =    -15.00541  eV     2   --> G_4            
     e( 11 - 12) =    -13.72919  eV     2   --> G_3            
     e( 11 - 12) =    -13.72919  eV     2   --> G_4            
     e( 13 - 14) =     -6.53414  eV     2   --> G_3            
     e( 13 - 14) =     -6.53414  eV     2   --> G_4            
     e( 15 - 15) =     -3.63042  eV     1   --> G_4            
     e( 16 - 16) =     -3.62643  eV     1   --> G_3            
     e( 17 - 17) =     -3.51690  eV     1   --> G_3            
     e( 18 - 18) =     -3.51287  eV     1   --> G_4            
     e( 19 - 19) =     -2.93445  eV     1   --> G_4            
     e( 20 - 20) =     -2.93428  eV     1   --> G_3            
     e( 21 - 21) =     -2.50385  eV     1   --> G_3            
     e( 22 - 22) =     -2.49824  eV     1   --> G_4            
     e( 23 - 23) =     -2.29256  eV     1   --> G_4            
     e( 24 - 24) =     -2.28669  eV     1   --> G_3            
     e( 25 - 26) =     -0.98587  eV     2   --> G_3            
     e( 25 - 26) =     -0.98587  eV     2   --> G_4            
     e( 27 - 27) =      1.73476  eV     1   --> G_3            
     e( 28 - 28) =      1.74612  eV     1   --> G_4            
     e( 29 - 29) =      1.85464  eV     1   --> G_4            
     e( 30 - 30) =      1.86213  eV     1   --> G_3            
     e( 31 - 31) =      1.95965  eV     1   --> G_4            
     e( 32 - 32) =      1.96970  eV     1   --> G_3            
     e( 33 - 33) =      2.01082  eV     1   --> G_3            
     e( 34 - 34) =      2.01784  eV     1   --> G_4            
     e( 35 - 36) =      4.04883  eV     2   --> G_3            
     e( 35 - 36) =      4.04883  eV     2   --> G_4            
     e( 37 - 38) =      4.34468  eV     2   --> G_3            
     e( 37 - 38) =      4.34468  eV     2   --> G_4            
     e( 39 - 39) =      4.80876  eV     1   --> G_4            
     e( 40 - 40) =      4.80888  eV     1   --> G_3            
     e( 41 - 41) =      5.52356  eV     1   --> G_4            
     e( 42 - 42) =      5.52375  eV     1   --> G_3            
     e( 43 - 44) =      5.95300  eV     2   --> G_3            
     e( 43 - 44) =      5.95300  eV     2   --> G_4            
     e( 45 - 46) =      7.11363  eV     2   --> G_3            
     e( 45 - 46) =      7.11363  eV     2   --> G_4            
     e( 47 - 48) =      8.17816  eV     2   --> G_3            
     e( 47 - 48) =      8.17816  eV     2   --> G_4            
     e( 49 - 50) =      8.82163  eV     2   --> G_3            
     e( 49 - 50) =      8.82163  eV     2   --> G_4            
     e( 51 - 51) =      9.64690  eV     1   --> G_4            
     e( 52 - 52) =      9.64967  eV     1   --> G_3            
     e( 53 - 53) =      9.89600  eV     1   --> G_4            
     e( 54 - 54) =      9.89623  eV     1   --> G_3            
     e( 55 - 55) =     10.15043  eV     1   --> G_3            
     e( 56 - 56) =     10.15341  eV     1   --> G_4            
     e( 57 - 57) =     11.56835  eV     1   --> G_3            
     e( 58 - 58) =     11.57128  eV     1   --> G_4            
     e( 59 - 59) =     11.81009  eV     1   --> G_4            
     e( 60 - 60) =     11.81651  eV     1   --> G_3            

 **************************************************************************

 **************************************************************************

                    xk=(   0.06667,   0.00000,   0.00000  )

     Band symmetry, C_s (m)     double point group:

     e(  1 -  2) =    -61.82157  eV     2   --> G_3            
     e(  1 -  2) =    -61.82157  eV     2   --> G_4            
     e(  3 -  4) =    -37.55174  eV     2   --> G_3            
     e(  3 -  4) =    -37.55174  eV     2   --> G_4            
     e(  5 -  6) =    -35.11666  eV     2   --> G_3            
     e(  5 -  6) =    -35.11666  eV     2   --> G_4            
     e(  7 -  7) =    -34.97309  eV     1   --> G_3            
     e(  8 -  8) =    -34.97292  eV     1   --> G_4            
     e(  9 -  9) =    -14.98391  eV     1   --> G_4            
     e( 10 - 10) =    -14.98378  eV     1   --> G_3            
     e( 11 - 12) =    -13.72023  eV     2   --> G_3            
     e( 11 - 12) =    -13.72023  eV     2   --> G_4            
     e( 13 - 13) =     -6.50935  eV     1   --> G_4            
     e( 14 - 14) =     -6.50921  eV     1   --> G_3            
     e( 15 - 15) =     -3.67609  eV     1   --> G_4            
     e( 16 - 16) =     -3.67019  eV     1   --> G_3            
     e( 17 - 17) =     -3.49971  eV     1   --> G_3            
     e( 18 - 18) =     -3.49376  eV     1   --> G_4            
     e( 19 - 19) =     -3.03256  eV     1   --> G_3            
     e( 20 - 20) =     -3.03227  eV     1   --> G_4            
     e( 21 - 21) =     -2.53959  eV     1   --> G_3            
     e( 22 - 22) =     -2.53238  eV     1   --> G_4            
     e( 23 - 23) =     -2.22828  eV     1   --> G_4            
     e( 24 - 24) =     -2.21989  eV     1   --> G_3            
     e( 25 - 25) =     -0.99630  eV     1   --> G_4            
     e( 26 - 26) =     -0.99616  eV     1   --> G_3            
     e( 27 - 27) =      1.70578  eV     1   --> G_3            
     e( 28 - 28) =      1.72268  eV     1   --> G_4            
     e( 29 - 29) =      1.87236  eV     1   --> G_3            
     e( 30 - 30) =      1.87474  eV     1   --> G_4            
     e( 31 - 31) =      1.90931  eV     1   --> G_4            
     e( 32 - 32) =      1.93239  eV     1   --> G_3            
     e( 33 - 33) =      1.98911  eV     1   --> G_3            
     e( 34 - 34) =      1.99481  eV     1   --> G_4            
     e( 35 - 36) =      4.08121  eV     2   --> G_3            
     e( 35 - 36) =      4.08121  eV     2   --> G_4            
     e( 37 - 38) =      4.37356  eV     2   --> G_3            
     e( 37 - 38) =      4.37356  eV     2   --> G_4            
     e( 39 - 39) =      4.85123  eV     1   --> G_4            
     e( 40 - 40) =      4.85148  eV     1   --> G_3            
     e( 41 - 41) =      5.61307  eV     1   --> G_4            
     e( 42 - 42) =      5.61350  eV     1   --> G_3            
     e( 43 - 44) =      5.98061  eV     2   --> G_3            
     e( 43 - 44) =      5.98061  eV     2   --> G_4            
     e( 45 - 46) =      7.14261  eV     2   --> G_3            
     e( 45 - 46) =      7.14261  eV     2   --> G_4            
     e( 47 - 47) =      8.27694  eV     1   --> G_3            
     e( 48 - 48) =      8.27706  eV     1   --> G_4            
     e( 49 - 50) =      8.84697  eV     2   --> G_3            
     e( 49 - 50) =      8.84697  eV     2   --> G_4            
     e( 51 - 51) =      9.56619  eV     1   --> G_4            
     e( 52 - 52) =      9.57073  eV     1   --> G_3            
     e( 53 - 53) =      9.95725  eV     1   --> G_4            
     e( 54 - 54) =      9.95905  eV     1   --> G_3            
     e( 55 - 55) =     10.20504  eV     1   --> G_3            
     e( 56 - 56) =     10.21139  eV     1   --> G_4            
     e( 57 - 57) =     11.41108  eV     1   --> G_3            
     e( 58 - 58) =     11.41441  eV     1   --> G_4            
     e( 59 - 59) =     11.81305  eV     1   --> G_4            
     e( 60 - 60) =     11.82262  eV     1   --> G_3            

 **************************************************************************

 **************************************************************************

                    xk=(   0.08333,   0.00000,   0.00000  )

     Band symmetry, C_s (m)     double point group:

     e(  1 -  2) =    -61.82093  eV     2   --> G_3            
     e(  1 -  2) =    -61.82093  eV     2   --> G_4            
     e(  3 -  3) =    -37.55361  eV     1   --> G_4            
     e(  4 -  4) =    -37.55347  eV     1   --> G_3            
     e(  5 -  5) =    -35.11749  eV     1   --> G_4            
     e(  6 -  6) =    -35.11737  eV     1   --> G_3            
     e(  7 -  7) =    -34.97763  eV     1   --> G_3            
     e(  8 -  8) =    -34.97729  eV     1   --> G_4            
     e(  9 -  9) =    -14.95647  eV     1   --> G_4            
     e( 10 - 10) =    -14.95621  eV     1   --> G_3            
     e( 11 - 12) =    -13.70879  eV     2   --> G_3            
     e( 11 - 12) =    -13.70879  eV     2   --> G_4            
     e( 13 - 13) =     -6.47799  eV     1   --> G_4            
     e( 14 - 14) =     -6.47771  eV     1   --> G_3            
     e( 15 - 15) =     -3.73536  eV     1   --> G_4            
     e( 16 - 16) =     -3.72788  eV     1   --> G_3            
     e( 17 - 17) =     -3.47448  eV     1   --> G_3            
     e( 18 - 18) =     -3.46715  eV     1   --> G_4            
     e( 19 - 19) =     -3.13477  eV     1   --> G_3            
     e( 20 - 20) =     -3.13339  eV     1   --> G_4            
     e( 21 - 21) =     -2.58747  eV     1   --> G_3            
     e( 22 - 22) =     -2.57916  eV     1   --> G_4            
     e( 23 - 23) =     -2.16696  eV     1   --> G_4            
     e( 24 - 24) =     -2.15591  eV     1   --> G_3            
     e( 25 - 25) =     -1.01077  eV     1   --> G_4            
     e( 26 - 26) =     -1.01045  eV     1   --> G_3            
     e( 27 - 27) =      1.67002  eV     1   --> G_3            
     e( 28 - 28) =      1.69065  eV     1   --> G_4            
     e( 29 - 29) =      1.82361  eV     1   --> G_3            
     e( 30 - 30) =      1.82506  eV     1   --> G_4            
     e( 31 - 31) =      1.93038  eV     1   -->   ?
     e( 32 - 32) =      1.93069  eV     1   -->   ?
     e( 33 - 33) =      1.96763  eV     1   --> G_4            
     e( 34 - 34) =      1.98590  eV     1   --> G_3            
     e( 35 - 35) =      4.12177  eV     1   --> G_4            
     e( 36 - 36) =      4.12193  eV     1   --> G_3            
     e( 37 - 38) =      4.41058  eV     2   --> G_3            
     e( 37 - 38) =      4.41058  eV     2   --> G_4            
     e( 39 - 39) =      4.90176  eV     1   --> G_4            
     e( 40 - 40) =      4.90217  eV     1   --> G_3            
     e( 41 - 41) =      5.72693  eV     1   --> G_4            
     e( 42 - 42) =      5.72774  eV     1   --> G_3            
     e( 43 - 44) =      6.01596  eV     2   --> G_3            
     e( 43 - 44) =      6.01596  eV     2   --> G_4            
     e( 45 - 45) =      7.17965  eV     1   --> G_4            
     e( 46 - 46) =      7.17983  eV     1   --> G_3            
     e( 47 - 47) =      8.39753  eV     1   --> G_3            
     e( 48 - 48) =      8.39769  eV     1   --> G_4            
     e( 49 - 50) =      8.87937  eV     2   --> G_3            
     e( 49 - 50) =      8.87937  eV     2   --> G_4            
     e( 51 - 51) =      9.47929  eV     1   --> G_4            
     e( 52 - 52) =      9.48581  eV     1   --> G_3            
     e( 53 - 53) =     10.03190  eV     1   --> G_4            
     e( 54 - 54) =     10.03699  eV     1   --> G_3            
     e( 55 - 55) =     10.26272  eV     1   --> G_3            
     e( 56 - 56) =     10.27445  eV     1   --> G_4            
     e( 57 - 57) =     11.23380  eV     1   --> G_3            
     e( 58 - 58) =     11.23754  eV     1   --> G_4            
     e( 59 - 59) =     11.81374  eV     1   --> G_4            
     e( 60 - 60) =     11.82812  eV     1   --> G_3            

 **************************************************************************

 **************************************************************************

                    xk=(   0.10000,   0.00000,   0.00000  )

     Band symmetry, C_s (m)     double point group:

     e(  1 -  2) =    -61.82008  eV     2   --> G_3            
     e(  1 -  2) =    -61.82008  eV     2   --> G_4            
     e(  3 -  3) =    -37.55587  eV     1   --> G_4            
     e(  4 -  4) =    -37.55562  eV     1   --> G_3            
     e(  5 -  5) =    -35.11855  eV     1   --> G_4            
     e(  6 -  6) =    -35.11834  eV     1   --> G_3            
     e(  7 -  7) =    -34.98304  eV     1   --> G_3            
     e(  8 -  8) =    -34.98245  eV     1   --> G_4            
     e(  9 -  9) =    -14.92320  eV     1   --> G_4            
     e( 10 - 10) =    -14.92275  eV     1   --> G_3            
     e( 11 - 12) =    -13.69492  eV     2   --> G_3            
     e( 11 - 12) =    -13.69492  eV     2   --> G_4            
     e( 13 - 13) =     -6.44047  eV     1   --> G_4            
     e( 14 - 14) =     -6.43996  eV     1   --> G_3            
     e( 15 - 15) =     -3.80581  eV     1   --> G_4            
     e( 16 - 16) =     -3.79700  eV     1   --> G_3            
     e( 17 - 17) =     -3.44258  eV     1   --> G_3            
     e( 18 - 18) =     -3.43509  eV     1   --> G_4            
     e( 19 - 19) =     -3.23872  eV     1   --> G_3            
     e( 20 - 20) =     -3.23479  eV     1   --> G_4            
     e( 21 - 21) =     -2.64686  eV     1   --> G_3            
     e( 22 - 22) =     -2.63796  eV     1   --> G_4            
     e( 23 - 23) =     -2.11098  eV     1   --> G_4            
     e( 24 - 24) =     -2.09714  eV     1   --> G_3            
     e( 25 - 25) =     -1.03001  eV     1   --> G_4            
     e( 26 - 26) =     -1.02936  eV     1   --> G_3            
     e( 27 - 27) =      1.63123  eV     1   --> G_3            
     e( 28 - 28) =      1.65306  eV     1   --> G_4            
     e( 29 - 29) =      1.75024  eV     1   --> G_3            
     e( 30 - 30) =      1.75240  eV     1   --> G_4            
     e( 31 - 31) =      1.90242  eV     1   --> G_3            
     e( 32 - 32) =      1.92511  eV     1   --> G_4            
     e( 33 - 33) =      1.99040  eV     1   --> G_4            
     e( 34 - 34) =      2.03140  eV     1   --> G_3            
     e( 35 - 35) =      4.17017  eV     1   --> G_4            
     e( 36 - 36) =      4.17041  eV     1   --> G_3            
     e( 37 - 38) =      4.45566  eV     2   --> G_3            
     e( 37 - 38) =      4.45566  eV     2   --> G_4            
     e( 39 - 39) =      4.95900  eV     1   --> G_4            
     e( 40 - 40) =      4.95959  eV     1   --> G_3            
     e( 41 - 41) =      5.86331  eV     1   --> G_4            
     e( 42 - 42) =      5.86465  eV     1   --> G_3            
     e( 43 - 44) =      6.05896  eV     2   --> G_3            
     e( 43 - 44) =      6.05896  eV     2   --> G_4            
     e( 45 - 45) =      7.22472  eV     1   --> G_4            
     e( 46 - 46) =      7.22503  eV     1   --> G_3            
     e( 47 - 47) =      8.53524  eV     1   --> G_3            
     e( 48 - 48) =      8.53539  eV     1   --> G_4            
     e( 49 - 50) =      8.91874  eV     2   --> G_3            
     e( 49 - 50) =      8.91874  eV     2   --> G_4            
     e( 51 - 51) =      9.38941  eV     1   --> G_4            
     e( 52 - 52) =      9.39806  eV     1   --> G_3            
     e( 53 - 53) =     10.11416  eV     1   --> G_4            
     e( 54 - 54) =     10.12491  eV     1   --> G_3            
     e( 55 - 55) =     10.32527  eV     1   --> G_3            
     e( 56 - 56) =     10.34508  eV     1   --> G_4            
     e( 57 - 57) =     11.04660  eV     1   --> G_3            
     e( 58 - 58) =     11.05080  eV     1   --> G_4            
     e( 59 - 59) =     11.80678  eV     1   --> G_4            
     e( 60 - 60) =     11.82350  eV     1   --> G_3            

 **************************************************************************

 **************************************************************************

                    xk=(   0.11667,   0.00000,   0.00000  )

     Band symmetry, C_s (m)     double point group:

     e(  1 -  2) =    -61.81911  eV     2   --> G_3            
     e(  1 -  2) =    -61.81911  eV     2   --> G_4            
     e(  3 -  3) =    -37.55853  eV     1   --> G_4            
     e(  4 -  4) =    -37.55813  eV     1   --> G_3            
     e(  5 -  5) =    -35.11986  eV     1   --> G_4            
     e(  6 -  6) =    -35.11953  eV     1   --> G_3            
     e(  7 -  7) =    -34.98925  eV     1   --> G_3            
     e(  8 -  8) =    -34.98833  eV     1   --> G_4            
     e(  9 -  9) =    -14.88427  eV     1   --> G_4            
     e( 10 - 10) =    -14.88356  eV     1   --> G_3            
     e( 11 - 12) =    -13.67868  eV     2   --> G_3            
     e( 11 - 12) =    -13.67868  eV     2   --> G_4            
     e( 13 - 13) =     -6.39728  eV     1   --> G_4            
     e( 14 - 14) =     -6.39646  eV     1   --> G_3            
     e( 15 - 15) =     -3.88542  eV     1   --> G_4            
     e( 16 - 16) =     -3.87550  eV     1   --> G_3            
     e( 17 - 17) =     -3.40595  eV     1   --> G_4            
     e( 18 - 18) =     -3.40511  eV     1   --> G_3            
     e( 19 - 19) =     -3.34278  eV     1   --> G_3            
     e( 20 - 20) =     -3.32748  eV     1   --> G_4            
     e( 21 - 21) =     -2.71754  eV     1   --> G_3            
     e( 22 - 22) =     -2.70860  eV     1   --> G_4            
     e( 23 - 23) =     -2.06143  eV     1   --> G_4            
     e( 24 - 24) =     -2.04473  eV     1   --> G_3            
     e( 25 - 25) =     -1.05481  eV     1   --> G_4            
     e( 26 - 26) =     -1.05360  eV     1   --> G_3            
     e( 27 - 27) =      1.59239  eV     1   --> G_3            
     e( 28 - 28) =      1.60954  eV     1   --> G_4            
     e( 29 - 29) =      1.67068  eV     1   --> G_3            
     e( 30 - 30) =      1.68104  eV     1   --> G_4            
     e( 31 - 31) =      1.86125  eV     1   --> G_3            
     e( 32 - 32) =      1.88522  eV     1   --> G_4            
     e( 33 - 33) =      2.05324  eV     1   --> G_4            
     e( 34 - 34) =      2.09629  eV     1   --> G_3            
     e( 35 - 35) =      4.22619  eV     1   --> G_4            
     e( 36 - 36) =      4.22651  eV     1   --> G_3            
     e( 37 - 38) =      4.50873  eV     2   --> G_3            
     e( 37 - 38) =      4.50873  eV     2   --> G_4            
     e( 39 - 39) =      5.02217  eV     1   --> G_4            
     e( 40 - 40) =      5.02297  eV     1   --> G_3            
     e( 41 - 41) =      6.01965  eV     1   --> G_4            
     e( 42 - 42) =      6.02165  eV     1   --> G_3            
     e( 43 - 44) =      6.10952  eV     2   --> G_3            
     e( 43 - 44) =      6.10952  eV     2   --> G_4            
     e( 45 - 45) =      7.27786  eV     1   --> G_4            
     e( 46 - 46) =      7.27833  eV     1   --> G_3            
     e( 47 - 48) =      8.68403  eV     2   --> G_3            
     e( 47 - 48) =      8.68403  eV     2   --> G_4            
     e( 49 - 49) =      8.96520  eV     1   --> G_4            
     e( 50 - 50) =      8.96543  eV     1   --> G_3            
     e( 51 - 51) =      9.29874  eV     1   --> G_4            
     e( 52 - 52) =      9.30948  eV     1   --> G_3            
     e( 53 - 53) =     10.19706  eV     1   --> G_4            
     e( 54 - 54) =     10.21552  eV     1   --> G_3            
     e( 55 - 55) =     10.39608  eV     1   --> G_3            
     e( 56 - 56) =     10.42641  eV     1   --> G_4            
     e( 57 - 57) =     10.85788  eV     1   --> G_3            
     e( 58 - 58) =     10.86267  eV     1   --> G_4            
     e( 59 - 59) =     11.78697  eV     1   --> G_4            
     e( 60 - 60) =     11.79698  eV     1   --> G_3            

 **************************************************************************

 **************************************************************************

                    xk=(   0.13333,   0.00000,   0.00000  )

     Band symmetry, C_s (m)     double point group:

     e(  1 -  2) =    -61.81803  eV     2   --> G_3            
     e(  1 -  2) =    -61.81803  eV     2   --> G_4            
     e(  3 -  3) =    -37.56156  eV     1   --> G_4            
     e(  4 -  4) =    -37.56097  eV     1   --> G_3            
     e(  5 -  5) =    -35.12145  eV     1   --> G_4            
     e(  6 -  6) =    -35.12098  eV     1   --> G_3            
     e(  7 -  7) =    -34.99616  eV     1   --> G_3            
     e(  8 -  8) =    -34.99482  eV     1   --> G_4            
     e(  9 -  9) =    -14.83987  eV     1   --> G_4            
     e( 10 - 10) =    -14.83881  eV     1   --> G_3            
     e( 11 - 12) =    -13.66015  eV     2   --> G_3            
     e( 11 - 12) =    -13.66015  eV     2   --> G_4            
     e( 13 - 13) =     -6.34905  eV     1   --> G_4            
     e( 14 - 14) =     -6.34780  eV     1   --> G_3            
     e( 15 - 15) =     -3.97224  eV     1   --> G_4            
     e( 16 - 16) =     -3.96145  eV     1   --> G_3            
     e( 17 - 17) =     -3.45539  eV     1   --> G_4            
     e( 18 - 18) =     -3.44724  eV     1   --> G_3            
     e( 19 - 19) =     -3.36146  eV     1   --> G_3            
     e( 20 - 20) =     -3.33542  eV     1   --> G_4            
     e( 21 - 21) =     -2.79924  eV     1   --> G_3            
     e( 22 - 22) =     -2.79083  eV     1   --> G_4            
     e( 23 - 23) =     -2.01878  eV     1   --> G_4            
     e( 24 - 24) =     -1.99925  eV     1   --> G_3            
     e( 25 - 25) =     -1.08599  eV     1   --> G_4            
     e( 26 - 26) =     -1.08389  eV     1   --> G_3            
     e( 27 - 27) =      1.55403  eV     1   -->   ?
     e( 28 - 28) =      1.55521  eV     1   -->   ?
     e( 29 - 29) =      1.59051  eV     1   --> G_3            
     e( 30 - 30) =      1.62343  eV     1   --> G_4            
     e( 31 - 31) =      1.81473  eV     1   --> G_3            
     e( 32 - 32) =      1.83998  eV     1   --> G_4            
     e( 33 - 33) =      2.12574  eV     1   --> G_4            
     e( 34 - 34) =      2.17104  eV     1   --> G_3            
     e( 35 - 35) =      4.28972  eV     1   --> G_4            
     e( 36 - 36) =      4.29013  eV     1   --> G_3            
     e( 37 - 38) =      4.56972  eV     2   --> G_3            
     e( 37 - 38) =      4.56972  eV     2   --> G_4            
     e( 39 - 39) =      5.09097  eV     1   --> G_4            
     e( 40 - 40) =      5.09199  eV     1   --> G_3            
     e( 41 - 41) =      6.16700  eV     1   --> G_4            
     e( 42 - 42) =      6.16725  eV     1   --> G_3            
     e( 43 - 43) =      6.19353  eV     1   --> G_4            
     e( 44 - 44) =      6.19587  eV     1   --> G_3            
     e( 45 - 45) =      7.33927  eV     1   --> G_4            
     e( 46 - 46) =      7.33995  eV     1   --> G_3            
     e( 47 - 47) =      8.83477  eV     1   --> G_4            
     e( 48 - 48) =      8.83530  eV     1   --> G_3            
     e( 49 - 49) =      9.01946  eV     1   --> G_4            
     e( 50 - 50) =      9.02034  eV     1   --> G_3            
     e( 51 - 51) =      9.20951  eV     1   --> G_4            
     e( 52 - 52) =      9.22184  eV     1   --> G_3            
     e( 53 - 53) =     10.27448  eV     1   --> G_4            
     e( 54 - 54) =     10.30020  eV     1   --> G_3            
     e( 55 - 55) =     10.47843  eV     1   --> G_3            
     e( 56 - 56) =     10.51935  eV     1   --> G_4            
     e( 57 - 57) =     10.67583  eV     1   --> G_3            
     e( 58 - 58) =     10.68137  eV     1   --> G_4            
     e( 59 - 59) =     11.75904  eV     1   --> G_4            
     e( 60 - 60) =     11.76563  eV     1   --> G_3            

 **************************************************************************

 **************************************************************************

                    xk=(   0.15000,   0.00000,   0.00000  )

     Band symmetry, C_s (m)     double point group:

     e(  1 -  2) =    -61.81683  eV     2   --> G_3            
     e(  1 -  2) =    -61.81683  eV     2   --> G_4            
     e(  3 -  3) =    -37.56496  eV     1   --> G_4            
     e(  4 -  4) =    -37.56412  eV     1   --> G_3            
     e(  5 -  5) =    -35.12336  eV     1   --> G_4            
     e(  6 -  6) =    -35.12272  eV     1   --> G_3            
     e(  7 -  7) =    -35.00368  eV     1   --> G_3            
     e(  8 -  8) =    -35.00181  eV     1   --> G_4            
     e(  9 -  9) =    -14.79022  eV     1   --> G_4            
     e( 10 - 10) =    -14.78872  eV     1   --> G_3            
     e( 11 - 11) =    -13.63942  eV     1   --> G_3            
     e( 12 - 12) =    -13.63929  eV     1   --> G_4            
     e( 13 - 13) =     -6.29655  eV     1   --> G_4            
     e( 14 - 14) =     -6.29471  eV     1   --> G_3            
     e( 15 - 15) =     -4.06430  eV     1   --> G_4            
     e( 16 - 16) =     -4.05293  eV     1   --> G_3            
     e( 17 - 17) =     -3.55125  eV     1   --> G_4            
     e( 18 - 18) =     -3.54921  eV     1   --> G_3            
     e( 19 - 19) =     -3.31444  eV     1   --> G_3            
     e( 20 - 20) =     -3.29062  eV     1   --> G_4            
     e( 21 - 21) =     -2.89149  eV     1   --> G_3            
     e( 22 - 22) =     -2.88421  eV     1   --> G_4            
     e( 23 - 23) =     -1.98323  eV     1   --> G_4            
     e( 24 - 24) =     -1.96098  eV     1   --> G_3            
     e( 25 - 25) =     -1.12421  eV     1   --> G_4            
     e( 26 - 26) =     -1.12078  eV     1   --> G_3            
     e( 27 - 27) =      1.48641  eV     1   --> G_4            
     e( 28 - 28) =      1.50388  eV     1   --> G_3            
     e( 29 - 29) =      1.53042  eV     1   --> G_3            
     e( 30 - 30) =      1.58436  eV     1   --> G_4            
     e( 31 - 31) =      1.76520  eV     1   --> G_3            
     e( 32 - 32) =      1.79152  eV     1   --> G_4            
     e( 33 - 33) =      2.20566  eV     1   --> G_4            
     e( 34 - 34) =      2.25305  eV     1   --> G_3            
     e( 35 - 35) =      4.36070  eV     1   --> G_4            
     e( 36 - 36) =      4.36121  eV     1   --> G_3            
     e( 37 - 38) =      4.63856  eV     2   --> G_3            
     e( 37 - 38) =      4.63856  eV     2   --> G_4            
     e( 39 - 39) =      5.16533  eV     1   --> G_4            
     e( 40 - 40) =      5.16659  eV     1   --> G_3            
     e( 41 - 42) =      6.23258  eV     2   --> G_3            
     e( 41 - 42) =      6.23258  eV     2   --> G_4            
     e( 43 - 43) =      6.37997  eV     1   --> G_4            
     e( 44 - 44) =      6.38322  eV     1   --> G_3            
     e( 45 - 45) =      7.40937  eV     1   --> G_4            
     e( 46 - 46) =      7.41032  eV     1   --> G_3            
     e( 47 - 47) =      8.97149  eV     1   --> G_4            
     e( 48 - 48) =      8.97312  eV     1   --> G_3            
     e( 49 - 49) =      9.07805  eV     1   --> G_4            
     e( 50 - 50) =      9.08663  eV     1   --> G_3            
     e( 51 - 51) =      9.13237  eV     1   --> G_4            
     e( 52 - 52) =      9.13911  eV     1   --> G_3            
     e( 53 - 53) =     10.34346  eV     1   --> G_4            
     e( 54 - 54) =     10.37331  eV     1   --> G_3            
     e( 55 - 55) =     10.50691  eV     1   --> G_3            
     e( 56 - 56) =     10.51513  eV     1   --> G_4            
     e( 57 - 57) =     10.57260  eV     1   --> G_3            
     e( 58 - 58) =     10.61991  eV     1   --> G_4            
     e( 59 - 59) =     11.73310  eV     1   --> G_4            
     e( 60 - 60) =     11.73876  eV     1   --> G_3            

 **************************************************************************

 **************************************************************************

                    xk=(   0.16667,   0.00000,   0.00000  )

     Band symmetry, C_s (m)     double point group:

     e(  1 -  2) =    -61.81552  eV     2   --> G_3            
     e(  1 -  2) =    -61.81552  eV     2   --> G_4            
     e(  3 -  3) =    -37.56869  eV     1   --> G_4            
     e(  4 -  4) =    -37.56756  eV     1   --> G_3            
     e(  5 -  5) =    -35.12563  eV     1   --> G_4            
     e(  6 -  6) =    -35.12480  eV     1   --> G_3            
     e(  7 -  7) =    -35.01165  eV     1   --> G_3            
     e(  8 -  8) =    -35.00916  eV     1   --> G_4            
     e(  9 -  9) =    -14.73556  eV     1   --> G_4            
     e( 10 - 10) =    -14.73351  eV     1   --> G_3            
     e( 11 - 11) =    -13.61658  eV     1   --> G_3            
     e( 12 - 12) =    -13.61640  eV     1   --> G_4            
     e( 13 - 13) =     -6.24070  eV     1   --> G_4            
     e( 14 - 14) =     -6.23810  eV     1   --> G_3            
     e( 15 - 15) =     -4.15961  eV     1   --> G_4            
     e( 16 - 16) =     -4.14799  eV     1   --> G_3            
     e( 17 - 17) =     -3.64920  eV     1   --> G_3            
     e( 18 - 18) =     -3.64843  eV     1   --> G_4            
     e( 19 - 19) =     -3.26391  eV     1   --> G_3            
     e( 20 - 20) =     -3.23837  eV     1   --> G_4            
     e( 21 - 21) =     -2.99346  eV     1   --> G_3            
     e( 22 - 22) =     -2.98802  eV     1   --> G_4            
     e( 23 - 23) =     -1.95478  eV     1   --> G_4            
     e( 24 - 24) =     -1.93001  eV     1   --> G_3            
     e( 25 - 25) =     -1.16994  eV     1   --> G_4            
     e( 26 - 26) =     -1.16461  eV     1   --> G_3            
     e( 27 - 27) =      1.41660  eV     1   --> G_4            
     e( 28 - 28) =      1.42888  eV     1   --> G_3            
     e( 29 - 29) =      1.50341  eV     1   --> G_3            
     e( 30 - 30) =      1.55726  eV     1   --> G_4            
     e( 31 - 31) =      1.71463  eV     1   --> G_3            
     e( 32 - 32) =      1.74167  eV     1   --> G_4            
     e( 33 - 33) =      2.29151  eV     1   --> G_4            
     e( 34 - 34) =      2.34064  eV     1   --> G_3            
     e( 35 - 35) =      4.43913  eV     1   --> G_4            
     e( 36 - 36) =      4.43973  eV     1   --> G_3            
     e( 37 - 38) =      4.71515  eV     2   --> G_3            
     e( 37 - 38) =      4.71515  eV     2   --> G_4            
     e( 39 - 39) =      5.24534  eV     1   --> G_4            
     e( 40 - 40) =      5.24685  eV     1   --> G_3            
     e( 41 - 42) =      6.30493  eV     2   --> G_3            
     e( 41 - 42) =      6.30493  eV     2   --> G_4            
     e( 43 - 43) =      6.57638  eV     1   --> G_4            
     e( 44 - 44) =      6.58025  eV     1   --> G_3            
     e( 45 - 45) =      7.48894  eV     1   --> G_4            
     e( 46 - 46) =      7.49025  eV     1   --> G_3            
     e( 47 - 47) =      9.02082  eV     1   --> G_4            
     e( 48 - 48) =      9.04256  eV     1   --> G_3            
     e( 49 - 49) =      9.07964  eV     1   --> G_4            
     e( 50 - 50) =      9.08066  eV     1   --> G_3            
     e( 51 - 51) =      9.18640  eV     1   --> G_3            
     e( 52 - 52) =      9.18839  eV     1   --> G_4            
     e( 53 - 53) =     10.36855  eV     1   --> G_3            
     e( 54 - 54) =     10.37763  eV     1   --> G_4            
     e( 55 - 55) =     10.40378  eV     1   --> G_4            
     e( 56 - 56) =     10.43455  eV     1   --> G_3            
     e( 57 - 57) =     10.66272  eV     1   --> G_3            
     e( 58 - 58) =     10.71579  eV     1   --> G_4            
     e( 59 - 59) =     11.72144  eV     1   --> G_4            
     e( 60 - 60) =     11.72759  eV     1   --> G_3            

 **************************************************************************

 **************************************************************************

                    xk=(   0.18333,   0.00000,   0.00000  )

     Band symmetry, C_s (m)     double point group:

     e(  1 -  2) =    -61.81413  eV     2   --> G_3            
     e(  1 -  2) =    -61.81413  eV     2   --> G_4            
     e(  3 -  3) =    -37.57274  eV     1   --> G_4            
     e(  4 -  4) =    -37.57125  eV     1   --> G_3            
     e(  5 -  5) =    -35.12830  eV     1   --> G_4            
     e(  6 -  6) =    -35.12727  eV     1   --> G_3            
     e(  7 -  7) =    -35.01996  eV     1   --> G_3            
     e(  8 -  8) =    -35.01676  eV     1   --> G_4            
     e(  9 -  9) =    -14.67616  eV     1   --> G_4            
     e( 10 - 10) =    -14.67344  eV     1   --> G_3            
     e( 11 - 11) =    -13.59176  eV     1   --> G_3            
     e( 12 - 12) =    -13.59152  eV     1   --> G_4            
     e( 13 - 13) =     -6.18263  eV     1   --> G_4            
     e( 14 - 14) =     -6.17906  eV     1   --> G_3            
     e( 15 - 15) =     -4.25611  eV     1   --> G_4            
     e( 16 - 16) =     -4.24462  eV     1   --> G_3            
     e( 17 - 17) =     -3.74663  eV     1   --> G_3            
     e( 18 - 18) =     -3.74351  eV     1   --> G_4            
     e( 19 - 19) =     -3.21204  eV     1   --> G_3            
     e( 20 - 20) =     -3.18294  eV     1   --> G_4            
     e( 21 - 21) =     -3.10319  eV     1   --> G_3            
     e( 22 - 22) =     -3.10089  eV     1   --> G_4            
     e( 23 - 23) =     -1.93335  eV     1   --> G_4            
     e( 24 - 24) =     -1.90631  eV     1   --> G_3            
     e( 25 - 25) =     -1.22329  eV     1   --> G_4            
     e( 26 - 26) =     -1.21535  eV     1   --> G_3            
     e( 27 - 27) =      1.35016  eV     1   --> G_4            
     e( 28 - 28) =      1.35600  eV     1   --> G_3            
     e( 29 - 29) =      1.48578  eV     1   --> G_3            
     e( 30 - 30) =      1.53845  eV     1   --> G_4            
     e( 31 - 31) =      1.66519  eV     1   --> G_3            
     e( 32 - 32) =      1.69268  eV     1   --> G_4            
     e( 33 - 33) =      2.38194  eV     1   --> G_4            
     e( 34 - 34) =      2.43236  eV     1   --> G_3            
     e( 35 - 35) =      4.52499  eV     1   --> G_4            
     e( 36 - 36) =      4.52570  eV     1   --> G_3            
     e( 37 - 38) =      4.79940  eV     2   --> G_3            
     e( 37 - 38) =      4.79940  eV     2   --> G_4            
     e( 39 - 39) =      5.33109  eV     1   --> G_4            
     e( 40 - 40) =      5.33289  eV     1   --> G_3            
     e( 41 - 42) =      6.38417  eV     2   --> G_3            
     e( 41 - 42) =      6.38417  eV     2   --> G_4            
     e( 43 - 43) =      6.77810  eV     1   --> G_4            
     e( 44 - 44) =      6.78238  eV     1   --> G_3            
     e( 45 - 45) =      7.57930  eV     1   --> G_4            
     e( 46 - 46) =      7.58109  eV     1   --> G_3            
     e( 47 - 47) =      8.94090  eV     1   --> G_4            
     e( 48 - 48) =      8.96501  eV     1   --> G_3            
     e( 49 - 50) =      9.14454  eV     2   --> G_3            
     e( 49 - 50) =      9.14454  eV     2   --> G_4            
     e( 51 - 51) =      9.27885  eV     1   --> G_4            
     e( 52 - 52) =      9.28004  eV     1   --> G_3            
     e( 53 - 53) =     10.27463  eV     1   --> G_3            
     e( 54 - 54) =     10.28618  eV     1   --> G_4            
     e( 55 - 55) =     10.45395  eV     1   --> G_4            
     e( 56 - 56) =     10.48355  eV     1   --> G_3            
     e( 57 - 57) =     10.74007  eV     1   --> G_3            
     e( 58 - 58) =     10.79509  eV     1   --> G_4            
     e( 59 - 59) =     11.73576  eV     1   --> G_4            
     e( 60 - 60) =     11.74506  eV     1   --> G_3            

 **************************************************************************

 **************************************************************************

                    xk=(   0.20000,   0.00000,   0.00000  )

     Band symmetry, C_s (m)     double point group:

     e(  1 -  2) =    -61.81272  eV     2   --> G_3            
     e(  1 -  2) =    -61.81272  eV     2   --> G_4            
     e(  3 -  3) =    -37.57710  eV     1   --> G_4            
     e(  4 -  4) =    -37.57520  eV     1   --> G_3            
     e(  5 -  5) =    -35.13141  eV     1   --> G_4            
     e(  6 -  6) =    -35.13021  eV     1   --> G_3            
     e(  7 -  7) =    -35.02845  eV     1   --> G_3            
     e(  8 -  8) =    -35.02447  eV     1   --> G_4            
     e(  9 -  9) =    -14.61234  eV     1   --> G_4            
     e( 10 - 10) =    -14.60882  eV     1   --> G_3            
     e( 11 - 11) =    -13.56507  eV     1   --> G_3            
     e( 12 - 12) =    -13.56476  eV     1   --> G_4            
     e( 13 - 13) =     -6.12375  eV     1   --> G_4            
     e( 14 - 14) =     -6.11893  eV     1   --> G_3            
     e( 15 - 15) =     -4.35161  eV     1   --> G_4            
     e( 16 - 16) =     -4.34071  eV     1   --> G_3            
     e( 17 - 17) =     -3.84128  eV     1   --> G_3            
     e( 18 - 18) =     -3.83576  eV     1   --> G_4            
     e( 19 - 19) =     -3.22834  eV     1   --> G_3            
     e( 20 - 20) =     -3.22380  eV     1   --> G_4            
     e( 21 - 21) =     -3.15117  eV     1   --> G_3            
     e( 22 - 22) =     -3.12376  eV     1   --> G_4            
     e( 23 - 23) =     -1.91879  eV     1   --> G_4            
     e( 24 - 24) =     -1.88977  eV     1   --> G_3            
     e( 25 - 25) =     -1.28385  eV     1   --> G_4            
     e( 26 - 26) =     -1.27248  eV     1   --> G_3            
     e( 27 - 27) =      1.28737  eV     1   --> G_3            
     e( 28 - 28) =      1.28896  eV     1   --> G_4            
     e( 29 - 29) =      1.47630  eV     1   --> G_3            
     e( 30 - 30) =      1.52611  eV     1   --> G_4            
     e( 31 - 31) =      1.61933  eV     1   --> G_3            
     e( 32 - 32) =      1.64773  eV     1   --> G_4            
     e( 33 - 33) =      2.47552  eV     1   --> G_4            
     e( 34 - 34) =      2.52676  eV     1   --> G_3            
     e( 35 - 35) =      4.61827  eV     1   --> G_4            
     e( 36 - 36) =      4.61911  eV     1   --> G_3            
     e( 37 - 37) =      4.89120  eV     1   --> G_3            
     e( 38 - 38) =      4.89130  eV     1   --> G_4            
     e( 39 - 39) =      5.42270  eV     1   --> G_4            
     e( 40 - 40) =      5.42480  eV     1   --> G_3            
     e( 41 - 42) =      6.47010  eV     2   --> G_3            
     e( 41 - 42) =      6.47010  eV     2   --> G_4            
     e( 43 - 43) =      6.98001  eV     1   --> G_4            
     e( 44 - 44) =      6.98431  eV     1   --> G_3            
     e( 45 - 45) =      7.68246  eV     1   --> G_4            
     e( 46 - 46) =      7.68486  eV     1   --> G_3            
     e( 47 - 47) =      8.85866  eV     1   --> G_4            
     e( 48 - 48) =      8.88525  eV     1   --> G_3            
     e( 49 - 49) =      9.18581  eV     1   --> G_4            
     e( 50 - 50) =      9.18621  eV     1   --> G_3            
     e( 51 - 51) =      9.34218  eV     1   --> G_4            
     e( 52 - 52) =      9.34504  eV     1   --> G_3            
     e( 53 - 53) =     10.24504  eV     1   --> G_3            
     e( 54 - 54) =     10.25888  eV     1   --> G_4            
     e( 55 - 55) =     10.49167  eV     1   --> G_4            
     e( 56 - 56) =     10.51732  eV     1   --> G_3            
     e( 57 - 57) =     10.79703  eV     1   --> G_3            
     e( 58 - 58) =     10.84965  eV     1   --> G_4            
     e( 59 - 59) =     11.72898  eV     1   --> G_4            
     e( 60 - 60) =     11.73485  eV     1   --> G_3            

 **************************************************************************

 **************************************************************************

                    xk=(   0.21667,   0.00000,   0.00000  )

     Band symmetry, C_s (m)     double point group:

     e(  1 -  2) =    -61.81119  eV     2   --> G_3            
     e(  1 -  2) =    -61.81119  eV     2   --> G_4            
     e(  3 -  3) =    -37.58172  eV     1   --> G_4            
     e(  4 -  4) =    -37.57933  eV     1   --> G_3            
     e(  5 -  5) =    -35.13498  eV     1   --> G_4            
     e(  6 -  6) =    -35.13367  eV     1   --> G_3            
     e(  7 -  7) =    -35.03693  eV     1   --> G_3            
     e(  8 -  8) =    -35.03215  eV     1   --> G_4            
     e(  9 -  9) =    -14.54440  eV     1   --> G_4            
     e( 10 - 10) =    -14.53995  eV     1   --> G_3            
     e( 11 - 11) =    -13.53664  eV     1   --> G_3            
     e( 12 - 12) =    -13.53625  eV     1   --> G_4            
     e( 13 - 13) =     -6.06574  eV     1   --> G_4            
     e( 14 - 14) =     -6.05935  eV     1   --> G_3            
     e( 15 - 15) =     -4.44374  eV     1   --> G_4            
     e( 16 - 16) =     -4.43395  eV     1   --> G_3            
     e( 17 - 17) =     -3.93321  eV     1   --> G_3            
     e( 18 - 18) =     -3.92498  eV     1   --> G_4            
     e( 19 - 19) =     -3.35144  eV     1   --> G_4            
     e( 20 - 20) =     -3.35051  eV     1   --> G_3            
     e( 21 - 21) =     -3.09955  eV     1   --> G_3            
     e( 22 - 22) =     -3.06609  eV     1   --> G_4            
     e( 23 - 23) =     -1.91097  eV     1   --> G_4            
     e( 24 - 24) =     -1.88025  eV     1   --> G_3            
     e( 25 - 25) =     -1.35065  eV     1   --> G_4            
     e( 26 - 26) =     -1.33489  eV     1   --> G_3            
     e( 27 - 27) =      1.22309  eV     1   --> G_3            
     e( 28 - 28) =      1.23331  eV     1   --> G_4            
     e( 29 - 29) =      1.47468  eV     1   --> G_3            
     e( 30 - 30) =      1.51755  eV     1   --> G_4            
     e( 31 - 31) =      1.57986  eV     1   --> G_3            
     e( 32 - 32) =      1.61174  eV     1   --> G_4            
     e( 33 - 33) =      2.57092  eV     1   --> G_4            
     e( 34 - 34) =      2.62251  eV     1   --> G_3            
     e( 35 - 35) =      4.71895  eV     1   --> G_4            
     e( 36 - 36) =      4.71992  eV     1   --> G_3            
     e( 37 - 37) =      4.99041  eV     1   --> G_3            
     e( 38 - 38) =      4.99056  eV     1   --> G_4            
     e( 39 - 39) =      5.52022  eV     1   --> G_4            
     e( 40 - 40) =      5.52268  eV     1   --> G_3            
     e( 41 - 41) =      6.56247  eV     1   --> G_3            
     e( 42 - 42) =      6.56259  eV     1   --> G_4            
     e( 43 - 43) =      7.17612  eV     1   --> G_4            
     e( 44 - 44) =      7.17988  eV     1   --> G_3            
     e( 45 - 45) =      7.80108  eV     1   --> G_4            
     e( 46 - 46) =      7.80418  eV     1   --> G_3            
     e( 47 - 47) =      8.77730  eV     1   --> G_4            
     e( 48 - 48) =      8.80688  eV     1   --> G_3            
     e( 49 - 49) =      9.18239  eV     1   --> G_4            
     e( 50 - 50) =      9.18403  eV     1   --> G_3            
     e( 51 - 51) =      9.39031  eV     1   --> G_4            
     e( 52 - 52) =      9.39278  eV     1   --> G_3            
     e( 53 - 53) =     10.28339  eV     1   --> G_3            
     e( 54 - 54) =     10.29841  eV     1   --> G_4            
     e( 55 - 55) =     10.51233  eV     1   --> G_4            
     e( 56 - 56) =     10.53055  eV     1   --> G_3            
     e( 57 - 57) =     10.83845  eV     1   --> G_3            
     e( 58 - 58) =     10.88358  eV     1   --> G_4            
     e( 59 - 59) =     11.68619  eV     1   --> G_4            
     e( 60 - 60) =     11.68804  eV     1   --> G_3            

 **************************************************************************

 **************************************************************************

                    xk=(   0.23333,   0.00000,   0.00000  )

     Band symmetry, C_s (m)     double point group:

     e(  1 -  2) =    -61.80956  eV     2   --> G_3            
     e(  1 -  2) =    -61.80956  eV     2   --> G_4            
     e(  3 -  3) =    -37.58657  eV     1   --> G_4            
     e(  4 -  4) =    -37.58363  eV     1   --> G_3            
     e(  5 -  5) =    -35.13905  eV     1   --> G_4            
     e(  6 -  6) =    -35.13774  eV     1   --> G_3            
     e(  7 -  7) =    -35.04525  eV     1   --> G_3            
     e(  8 -  8) =    -35.03967  eV     1   --> G_4            
     e(  9 -  9) =    -14.47271  eV     1   --> G_4            
     e( 10 - 10) =    -14.46718  eV     1   --> G_3            
     e( 11 - 11) =    -13.50663  eV     1   --> G_3            
     e( 12 - 12) =    -13.50614  eV     1   --> G_4            
     e( 13 - 13) =     -6.01067  eV     1   --> G_4            
     e( 14 - 14) =     -6.00235  eV     1   --> G_3            
     e( 15 - 15) =     -4.52993  eV     1   --> G_4            
     e( 16 - 16) =     -4.52183  eV     1   --> G_3            
     e( 17 - 17) =     -4.02292  eV     1   --> G_3            
     e( 18 - 18) =     -4.01150  eV     1   --> G_4            
     e( 19 - 19) =     -3.48375  eV     1   --> G_4            
     e( 20 - 20) =     -3.47852  eV     1   --> G_3            
     e( 21 - 21) =     -3.04825  eV     1   --> G_3            
     e( 22 - 22) =     -3.00989  eV     1   --> G_4            
     e( 23 - 23) =     -1.90973  eV     1   --> G_4            
     e( 24 - 24) =     -1.87759  eV     1   --> G_3            
     e( 25 - 25) =     -1.42202  eV     1   --> G_4            
     e( 26 - 26) =     -1.40083  eV     1   --> G_3            
     e( 27 - 27) =      1.16300  eV     1   --> G_3            
     e( 28 - 28) =      1.18288  eV     1   --> G_4            
     e( 29 - 29) =      1.47955  eV     1   --> G_3            
     e( 30 - 30) =      1.50763  eV     1   --> G_4            
     e( 31 - 31) =      1.55001  eV     1   --> G_3            
     e( 32 - 32) =      1.59182  eV     1   --> G_4            
     e( 33 - 33) =      2.66676  eV     1   --> G_4            
     e( 34 - 34) =      2.71820  eV     1   --> G_3            
     e( 35 - 35) =      4.82698  eV     1   --> G_4            
     e( 36 - 36) =      4.82811  eV     1   --> G_3            
     e( 37 - 37) =      5.09688  eV     1   --> G_3            
     e( 38 - 38) =      5.09709  eV     1   --> G_4            
     e( 39 - 39) =      5.62371  eV     1   --> G_4            
     e( 40 - 40) =      5.62655  eV     1   --> G_3            
     e( 41 - 41) =      6.66100  eV     1   --> G_3            
     e( 42 - 42) =      6.66115  eV     1   --> G_4            
     e( 43 - 43) =      7.36014  eV     1   --> G_4            
     e( 44 - 44) =      7.36260  eV     1   --> G_3            
     e( 45 - 45) =      7.93740  eV     1   --> G_4            
     e( 46 - 46) =      7.94103  eV     1   --> G_3            
     e( 47 - 47) =      8.69719  eV     1   --> G_4            
     e( 48 - 48) =      8.73043  eV     1   --> G_3            
     e( 49 - 49) =      9.12791  eV     1   --> G_4            
     e( 50 - 50) =      9.13041  eV     1   --> G_3            
     e( 51 - 51) =      9.44649  eV     1   --> G_4            
     e( 52 - 52) =      9.44789  eV     1   --> G_3            
     e( 53 - 53) =     10.36988  eV     1   --> G_3            
     e( 54 - 54) =     10.38490  eV     1   --> G_4            
     e( 55 - 55) =     10.51313  eV     1   --> G_4            
     e( 56 - 56) =     10.52137  eV     1   --> G_3            
     e( 57 - 57) =     10.87467  eV     1   --> G_3            
     e( 58 - 58) =     10.90922  eV     1   --> G_4            
     e( 59 - 59) =     11.63853  eV     1   --> G_3            
     e( 60 - 60) =     11.63942  eV     1   --> G_4            

 **************************************************************************

 **************************************************************************

                    xk=(   0.25000,   0.00000,   0.00000  )

     Band symmetry, C_s (m)     double point group:

     e(  1 -  2) =    -61.80791  eV     2   --> G_3            
     e(  1 -  2) =    -61.80791  eV     2   --> G_4            
     e(  3 -  3) =    -37.59162  eV     1   --> G_4            
     e(  4 -  4) =    -37.58807  eV     1   --> G_3            
     e(  5 -  5) =    -35.14362  eV     1   --> G_4            
     e(  6 -  6) =    -35.14247  eV     1   --> G_3            
     e(  7 -  7) =    -35.05325  eV     1   --> G_3            
     e(  8 -  8) =    -35.04695  eV     1   --> G_4            
     e(  9 -  9) =    -14.39766  eV     1   --> G_4            
     e( 10 - 10) =    -14.39089  eV     1   --> G_3            
     e( 11 - 11) =    -13.47518  eV     1   --> G_3            
     e( 12 - 12) =    -13.47458  eV     1   --> G_4            
     e( 13 - 13) =     -5.96102  eV     1   --> G_4            
     e( 14 - 14) =     -5.95038  eV     1   --> G_3            
     e( 15 - 15) =     -4.60735  eV     1   --> G_4            
     e( 16 - 16) =     -4.60157  eV     1   --> G_3            
     e( 17 - 17) =     -4.11156  eV     1   --> G_3            
     e( 18 - 18) =     -4.09632  eV     1   --> G_4            
     e( 19 - 19) =     -3.61768  eV     1   --> G_4            
     e( 20 - 20) =     -3.60764  eV     1   --> G_3            
     e( 21 - 21) =     -3.00170  eV     1   --> G_3            
     e( 22 - 22) =     -2.95789  eV     1   --> G_4            
     e( 23 - 23) =     -1.91496  eV     1   --> G_4            
     e( 24 - 24) =     -1.88163  eV     1   --> G_3            
     e( 25 - 25) =     -1.49564  eV     1   --> G_4            
     e( 26 - 26) =     -1.46789  eV     1   --> G_3            
     e( 27 - 27) =      1.10712  eV     1   --> G_3            
     e( 28 - 28) =      1.13719  eV     1   --> G_4            
     e( 29 - 29) =      1.48632  eV     1   --> G_3            
     e( 30 - 30) =      1.49399  eV     1   --> G_4            
     e( 31 - 31) =      1.53544  eV     1   --> G_3            
     e( 32 - 32) =      1.59189  eV     1   --> G_4            
     e( 33 - 33) =      2.76170  eV     1   --> G_4            
     e( 34 - 34) =      2.81252  eV     1   --> G_3            
     e( 35 - 35) =      4.94229  eV     1   --> G_4            
     e( 36 - 36) =      4.94362  eV     1   --> G_3            
     e( 37 - 37) =      5.21044  eV     1   --> G_3            
     e( 38 - 38) =      5.21072  eV     1   --> G_4            
     e( 39 - 39) =      5.73313  eV     1   --> G_4            
     e( 40 - 40) =      5.73643  eV     1   --> G_3            
     e( 41 - 41) =      6.76533  eV     1   --> G_3            
     e( 42 - 42) =      6.76552  eV     1   --> G_4            
     e( 43 - 43) =      7.52721  eV     1   --> G_4            
     e( 44 - 44) =      7.52754  eV     1   --> G_3            
     e( 45 - 45) =      8.08988  eV     1   --> G_4            
     e( 46 - 46) =      8.09301  eV     1   --> G_3            
     e( 47 - 47) =      8.62028  eV     1   --> G_4            
     e( 48 - 48) =      8.65855  eV     1   --> G_3            
     e( 49 - 49) =      9.04461  eV     1   --> G_4            
     e( 50 - 50) =      9.04721  eV     1   --> G_3            
     e( 51 - 51) =      9.51033  eV     1   --> G_4            
     e( 52 - 52) =      9.51093  eV     1   --> G_3            
     e( 53 - 53) =     10.47600  eV     1   --> G_3            
     e( 54 - 54) =     10.48606  eV     1   --> G_4            
     e( 55 - 55) =     10.49991  eV     1   --> G_3            
     e( 56 - 56) =     10.50573  eV     1   --> G_4            
     e( 57 - 57) =     10.91009  eV     1   --> G_3            
     e( 58 - 58) =     10.93485  eV     1   --> G_4            
     e( 59 - 59) =     11.59117  eV     1   --> G_3            
     e( 60 - 60) =     11.59461  eV     1   --> G_4            

 **************************************************************************

 **************************************************************************

                    xk=(   0.26667,   0.00000,   0.00000  )

     Band symmetry, C_s (m)     double point group:

     e(  1 -  2) =    -61.80623  eV     2   --> G_3            
     e(  1 -  2) =    -61.80623  eV     2   --> G_4            
     e(  3 -  3) =    -37.59683  eV     1   --> G_4            
     e(  4 -  4) =    -37.59261  eV     1   --> G_3            
     e(  5 -  5) =    -35.14868  eV     1   --> G_4            
     e(  6 -  6) =    -35.14790  eV     1   --> G_3            
     e(  7 -  7) =    -35.06079  eV     1   --> G_3            
     e(  8 -  8) =    -35.05391  eV     1   --> G_4            
     e(  9 -  9) =    -14.31966  eV     1   --> G_4            
     e( 10 - 10) =    -14.31149  eV     1   --> G_3            
     e( 11 - 11) =    -13.44247  eV     1   --> G_3            
     e( 12 - 12) =    -13.44174  eV     1   --> G_4            
     e( 13 - 13) =     -5.91958  eV     1   --> G_4            
     e( 14 - 14) =     -5.90626  eV     1   --> G_3            
     e( 15 - 15) =     -4.67299  eV     1   --> G_4            
     e( 16 - 16) =     -4.67012  eV     1   --> G_3            
     e( 17 - 17) =     -4.20113  eV     1   --> G_3            
     e( 18 - 18) =     -4.18143  eV     1   --> G_4            
     e( 19 - 19) =     -3.74945  eV     1   --> G_4            
     e( 20 - 20) =     -3.73396  eV     1   --> G_3            
     e( 21 - 21) =     -2.96308  eV     1   --> G_3            
     e( 22 - 22) =     -2.91315  eV     1   --> G_4            
     e( 23 - 23) =     -1.92653  eV     1   --> G_4            
     e( 24 - 24) =     -1.89224  eV     1   --> G_3            
     e( 25 - 25) =     -1.56849  eV     1   --> G_4            
     e( 26 - 26) =     -1.53307  eV     1   --> G_3            
     e( 27 - 27) =      1.05611  eV     1   --> G_3            
     e( 28 - 28) =      1.09625  eV     1   --> G_4            
     e( 29 - 29) =      1.48178  eV     1   --> G_4            
     e( 30 - 30) =      1.48765  eV     1   --> G_3            
     e( 31 - 31) =      1.54350  eV     1   --> G_3            
     e( 32 - 32) =      1.60739  eV     1   --> G_4            
     e( 33 - 33) =      2.85449  eV     1   --> G_4            
     e( 34 - 34) =      2.90417  eV     1   --> G_3            
     e( 35 - 35) =      5.06479  eV     1   --> G_4            
     e( 36 - 36) =      5.06634  eV     1   --> G_3            
     e( 37 - 37) =      5.33090  eV     1   --> G_3            
     e( 38 - 38) =      5.33127  eV     1   --> G_4            
     e( 39 - 39) =      5.84845  eV     1   --> G_4            
     e( 40 - 40) =      5.85226  eV     1   --> G_3            
     e( 41 - 41) =      6.87510  eV     1   --> G_3            
     e( 42 - 42) =      6.87533  eV     1   --> G_4            
     e( 43 - 43) =      7.67276  eV     1   --> G_3            
     e( 44 - 44) =      7.67555  eV     1   --> G_4            
     e( 45 - 45) =      8.24345  eV     1   --> G_4            
     e( 46 - 46) =      8.24385  eV     1   --> G_3            
     e( 47 - 47) =      8.55877  eV     1   --> G_4            
     e( 48 - 48) =      8.60453  eV     1   --> G_3            
     e( 49 - 49) =      8.95259  eV     1   --> G_4            
     e( 50 - 50) =      8.95497  eV     1   --> G_3            
     e( 51 - 52) =      9.57640  eV     2   --> G_3            
     e( 51 - 52) =      9.57640  eV     2   --> G_4            
     e( 53 - 53) =     10.46142  eV     1   --> G_3            
     e( 54 - 54) =     10.47048  eV     1   --> G_4            
     e( 55 - 55) =     10.60183  eV     1   --> G_3            
     e( 56 - 56) =     10.61548  eV     1   --> G_4            
     e( 57 - 57) =     10.94066  eV     1   --> G_3            
     e( 58 - 58) =     10.95923  eV     1   --> G_4            
     e( 59 - 59) =     11.55016  eV     1   --> G_3            
     e( 60 - 60) =     11.55598  eV     1   --> G_4            

 **************************************************************************

 **************************************************************************

                    xk=(   0.28333,   0.00000,   0.00000  )

     Band symmetry, C_s (m)     double point group:

     e(  1 -  2) =    -61.80451  eV     2   --> G_3            
     e(  1 -  2) =    -61.80451  eV     2   --> G_4            
     e(  3 -  3) =    -37.60217  eV     1   --> G_4            
     e(  4 -  4) =    -37.59721  eV     1   --> G_3            
     e(  5 -  5) =    -35.15418  eV     1   --> G_4            
     e(  6 -  6) =    -35.15405  eV     1   --> G_3            
     e(  7 -  7) =    -35.06777  eV     1   --> G_3            
     e(  8 -  8) =    -35.06048  eV     1   --> G_4            
     e(  9 -  9) =    -14.23916  eV     1   --> G_4            
     e( 10 - 10) =    -14.22942  eV     1   --> G_3            
     e( 11 - 11) =    -13.40867  eV     1   --> G_3            
     e( 12 - 12) =    -13.40780  eV     1   --> G_4            
     e( 13 - 13) =     -5.88914  eV     1   --> G_4            
     e( 14 - 14) =     -5.87297  eV     1   --> G_3            
     e( 15 - 15) =     -4.72442  eV     1   --> G_3            
     e( 16 - 16) =     -4.72396  eV     1   --> G_4            
     e( 17 - 17) =     -4.29466  eV     1   --> G_3            
     e( 18 - 18) =     -4.27026  eV     1   --> G_4            
     e( 19 - 19) =     -3.87397  eV     1   --> G_4            
     e( 20 - 20) =     -3.85279  eV     1   --> G_3            
     e( 21 - 21) =     -2.93589  eV     1   --> G_3            
     e( 22 - 22) =     -2.87927  eV     1   --> G_4            
     e( 23 - 23) =     -1.94431  eV     1   --> G_4            
     e( 24 - 24) =     -1.90929  eV     1   --> G_3            
     e( 25 - 25) =     -1.63690  eV     1   --> G_4            
     e( 26 - 26) =     -1.59282  eV     1   --> G_3            
     e( 27 - 27) =      1.01126  eV     1   --> G_3            
     e( 28 - 28) =      1.06083  eV     1   --> G_4            
     e( 29 - 29) =      1.47569  eV     1   --> G_4            
     e( 30 - 30) =      1.48777  eV     1   --> G_3            
     e( 31 - 31) =      1.56891  eV     1   --> G_3            
     e( 32 - 32) =      1.63306  eV     1   --> G_4            
     e( 33 - 33) =      2.94392  eV     1   --> G_4            
     e( 34 - 34) =      2.99194  eV     1   --> G_3            
     e( 35 - 35) =      5.19431  eV     1   --> G_4            
     e( 36 - 36) =      5.19616  eV     1   --> G_3            
     e( 37 - 37) =      5.45804  eV     1   --> G_3            
     e( 38 - 38) =      5.45852  eV     1   --> G_4            
     e( 39 - 39) =      5.96954  eV     1   --> G_4            
     e( 40 - 40) =      5.97396  eV     1   --> G_3            
     e( 41 - 41) =      6.98986  eV     1   --> G_3            
     e( 42 - 42) =      6.99011  eV     1   --> G_4            
     e( 43 - 43) =      7.79710  eV     1   --> G_3            
     e( 44 - 44) =      7.80472  eV     1   --> G_4            
     e( 45 - 45) =      8.32878  eV     1   --> G_4            
     e( 46 - 46) =      8.33495  eV     1   --> G_3            
     e( 47 - 47) =      8.57762  eV     1   --> G_4            
     e( 48 - 48) =      8.62291  eV     1   --> G_3            
     e( 49 - 49) =      8.86319  eV     1   --> G_4            
     e( 50 - 50) =      8.86535  eV     1   --> G_3            
     e( 51 - 51) =      9.64106  eV     1   --> G_3            
     e( 52 - 52) =      9.64172  eV     1   --> G_4            
     e( 53 - 53) =     10.43377  eV     1   --> G_3            
     e( 54 - 54) =     10.44844  eV     1   --> G_4            
     e( 55 - 55) =     10.72263  eV     1   --> G_3            
     e( 56 - 56) =     10.73542  eV     1   --> G_4            
     e( 57 - 57) =     10.95559  eV     1   --> G_3            
     e( 58 - 58) =     10.97325  eV     1   --> G_4            
     e( 59 - 59) =     11.51845  eV     1   --> G_3            
     e( 60 - 60) =     11.52634  eV     1   --> G_4            

 **************************************************************************

 **************************************************************************

                    xk=(   0.30000,   0.00000,   0.00000  )

     Band symmetry, C_s (m)     double point group:

     e(  1 -  2) =    -61.80281  eV     2   --> G_3            
     e(  1 -  2) =    -61.80281  eV     2   --> G_4            
     e(  3 -  3) =    -37.60760  eV     1   --> G_4            
     e(  4 -  4) =    -37.60184  eV     1   --> G_3            
     e(  5 -  5) =    -35.16086  eV     1   --> G_3            
     e(  6 -  6) =    -35.16005  eV     1   --> G_4            
     e(  7 -  7) =    -35.07415  eV     1   --> G_3            
     e(  8 -  8) =    -35.06667  eV     1   --> G_4            
     e(  9 -  9) =    -14.15664  eV     1   --> G_4            
     e( 10 - 10) =    -14.14515  eV     1   --> G_3            
     e( 11 - 11) =    -13.37396  eV     1   --> G_3            
     e( 12 - 12) =    -13.37295  eV     1   --> G_4            
     e( 13 - 13) =     -5.87195  eV     1   --> G_4            
     e( 14 - 14) =     -5.85305  eV     1   --> G_3            
     e( 15 - 15) =     -4.76197  eV     1   --> G_3            
     e( 16 - 16) =     -4.75807  eV     1   --> G_4            
     e( 17 - 17) =     -4.39573  eV     1   --> G_3            
     e( 18 - 18) =     -4.36743  eV     1   --> G_4            
     e( 19 - 19) =     -3.98503  eV     1   --> G_4            
     e( 20 - 20) =     -3.95899  eV     1   --> G_3            
     e( 21 - 21) =     -2.92366  eV     1   --> G_3            
     e( 22 - 22) =     -2.86026  eV     1   --> G_4            
     e( 23 - 23) =     -1.96809  eV     1   --> G_4            
     e( 24 - 24) =     -1.93271  eV     1   --> G_3            
     e( 25 - 25) =     -1.69691  eV     1   --> G_4            
     e( 26 - 26) =     -1.64353  eV     1   --> G_3            
     e( 27 - 27) =      0.97439  eV     1   --> G_3            
     e( 28 - 28) =      1.03242  eV     1   --> G_4            
     e( 29 - 29) =      1.47694  eV     1   --> G_4            
     e( 30 - 30) =      1.49261  eV     1   --> G_3            
     e( 31 - 31) =      1.60381  eV     1   --> G_3            
     e( 32 - 32) =      1.66605  eV     1   --> G_4            
     e( 33 - 33) =      3.02897  eV     1   --> G_4            
     e( 34 - 34) =      3.07476  eV     1   --> G_3            
     e( 35 - 35) =      5.33067  eV     1   --> G_4            
     e( 36 - 36) =      5.33288  eV     1   --> G_3            
     e( 37 - 37) =      5.59162  eV     1   --> G_3            
     e( 38 - 38) =      5.59222  eV     1   --> G_4            
     e( 39 - 39) =      6.09626  eV     1   --> G_4            
     e( 40 - 40) =      6.10138  eV     1   --> G_3            
     e( 41 - 41) =      7.10909  eV     1   --> G_3            
     e( 42 - 42) =      7.10936  eV     1   --> G_4            
     e( 43 - 43) =      7.89268  eV     1   --> G_3            
     e( 44 - 44) =      7.90810  eV     1   --> G_4            
     e( 45 - 45) =      8.30372  eV     1   --> G_4            
     e( 46 - 46) =      8.32945  eV     1   --> G_3            
     e( 47 - 47) =      8.72041  eV     1   --> G_4            
     e( 48 - 48) =      8.74997  eV     1   --> G_3            
     e( 49 - 49) =      8.78309  eV     1   --> G_4            
     e( 50 - 50) =      8.78778  eV     1   --> G_3            
     e( 51 - 51) =      9.70343  eV     1   --> G_3            
     e( 52 - 52) =      9.70470  eV     1   --> G_4            
     e( 53 - 53) =     10.41828  eV     1   --> G_3            
     e( 54 - 54) =     10.43720  eV     1   --> G_4            
     e( 55 - 55) =     10.84182  eV     1   --> G_3            
     e( 56 - 56) =     10.85459  eV     1   --> G_4            
     e( 57 - 57) =     10.93612  eV     1   --> G_3            
     e( 58 - 58) =     10.96002  eV     1   --> G_4            
[...]
     e( 39 - 40) =      5.18033  eV     2   --> G_5  D_5       
     e( 41 - 42) =      6.24858  eV     2   --> G_5  D_5       
     e( 43 - 44) =      6.41001  eV     2   --> G_5  D_5       
     e( 45 - 46) =      7.43124  eV     2   --> G_5  D_5       
     e( 47 - 48) =      8.93189  eV     2   --> G_5  D_5       
     e( 49 - 50) =      9.06883  eV     2   --> G_5  D_5       
     e( 51 - 52) =      9.13883  eV     2   --> G_5  D_5       
     e( 53 - 54) =     10.48537  eV     2   --> G_5  D_5       
     e( 55 - 56) =     10.51392  eV     2   --> G_5  D_5       
     e( 57 - 58) =     10.59901  eV     2   --> G_5  D_5       
     e( 59 - 60) =     11.66185  eV     2   --> G_5  D_5       

 **************************************************************************

 **************************************************************************

                    xk=(   0.11667,   0.06736,   0.00000  )

     Band symmetry, C_2v (mm2)  double point group:

     e(  1 -  2) =    -61.81796  eV     2   --> G_5  D_5       
     e(  3 -  4) =    -37.56153  eV     2   --> G_5  D_5       
     e(  5 -  6) =    -35.12143  eV     2   --> G_5  D_5       
     e(  7 -  8) =    -34.99600  eV     2   --> G_5  D_5       
     e(  9 - 10) =    -14.83544  eV     2   --> G_5  D_5       
     e( 11 - 12) =    -13.65850  eV     2   --> G_5  D_5       
     e( 13 - 14) =     -6.34482  eV     2   --> G_5  D_5       
     e( 15 - 16) =     -3.97619  eV     2   --> G_5  D_5       
     e( 17 - 18) =     -3.47725  eV     2   --> G_5  D_5       
     e( 19 - 20) =     -3.34271  eV     2   --> G_5  D_5       
     e( 21 - 22) =     -2.74942  eV     2   --> G_5  D_5       
     e( 23 - 24) =     -2.04635  eV     2   --> G_5  D_5       
     e( 25 - 26) =     -1.08866  eV     2   --> G_5  D_5       
     e( 27 - 28) =      1.55585  eV     2   --> G_5  D_5       
     e( 29 - 30) =      1.62169  eV     2   --> G_5  D_5       
     e( 31 - 32) =      1.83066  eV     2   --> G_5  D_5       
     e( 33 - 34) =      2.13472  eV     2   --> G_5  D_5       
     e( 35 - 36) =      4.29489  eV     2   --> G_5  D_5       
     e( 37 - 38) =      4.57493  eV     2   --> G_5  D_5       
     e( 39 - 40) =      5.09510  eV     2   --> G_5  D_5       
     e( 41 - 42) =      6.17203  eV     2   --> G_5  D_5       
     e( 43 - 44) =      6.20200  eV     2   --> G_5  D_5       
     e( 45 - 46) =      7.34627  eV     2   --> G_5  D_5       
     e( 47 - 48) =      8.82077  eV     2   --> G_5  D_5       
     e( 49 - 50) =      9.03323  eV     2   --> G_5  D_5       
     e( 51 - 52) =      9.18504  eV     2   --> G_5  D_5       
     e( 53 - 54) =     10.40335  eV     2   --> G_5  D_5       
     e( 55 - 56) =     10.44773  eV     2   --> G_5  D_5       
     e( 57 - 58) =     10.67140  eV     2   --> G_5  D_5       
     e( 59 - 60) =     11.72917  eV     2   --> G_5  D_5       

 **************************************************************************

 **************************************************************************

                    xk=(   0.10000,   0.05774,   0.00000  )

     Band symmetry, C_2v (mm2)  double point group:

     e(  1 -  2) =    -61.81921  eV     2   --> G_5  D_5       
     e(  3 -  4) =    -37.55814  eV     2   --> G_5  D_5       
     e(  5 -  6) =    -35.11963  eV     2   --> G_5  D_5       
     e(  7 -  8) =    -34.98830  eV     2   --> G_5  D_5       
     e(  9 - 10) =    -14.88692  eV     2   --> G_5  D_5       
     e( 11 - 12) =    -13.67991  eV     2   --> G_5  D_5       
     e( 13 - 14) =     -6.40040  eV     2   --> G_5  D_5       
     e( 15 - 16) =     -3.87561  eV     2   --> G_5  D_5       
     e( 17 - 18) =     -3.40688  eV     2   --> G_5  D_5       
     e( 19 - 20) =     -3.33804  eV     2   --> G_5  D_5       
     e( 21 - 22) =     -2.67721  eV     2   --> G_5  D_5       
     e( 23 - 24) =     -2.07957  eV     2   --> G_5  D_5       
     e( 25 - 26) =     -1.05261  eV     2   --> G_5  D_5       
     e( 27 - 28) =      1.61637  eV     2   --> G_5  D_5       
     e( 29 - 30) =      1.68125  eV     2   --> G_5  D_5       
     e( 31 - 32) =      1.88013  eV     2   --> G_5  D_5       
     e( 33 - 34) =      2.05928  eV     2   --> G_5  D_5       
     e( 35 - 36) =      4.22175  eV     2   --> G_5  D_5       
     e( 37 - 38) =      4.50457  eV     2   --> G_5  D_5       
     e( 39 - 40) =      5.01667  eV     2   --> G_5  D_5       
     e( 41 - 42) =      6.00584  eV     2   --> G_5  D_5       
     e( 43 - 44) =      6.10556  eV     2   --> G_5  D_5       
     e( 45 - 46) =      7.27435  eV     2   --> G_5  D_5       
     e( 47 - 48) =      8.66490  eV     2   --> G_5  D_5       
     e( 49 - 50) =      8.96368  eV     2   --> G_5  D_5       
     e( 51 - 52) =      9.29523  eV     2   --> G_5  D_5       
     e( 53 - 54) =     10.26030  eV     2   --> G_5  D_5       
     e( 55 - 56) =     10.37131  eV     2   --> G_5  D_5       
     e( 57 - 58) =     10.87081  eV     2   --> G_5  D_5       
     e( 59 - 60) =     11.78359  eV     2   --> G_5  D_5       

 **************************************************************************

 **************************************************************************

                    xk=(   0.08333,   0.04811,   0.00000  )

     Band symmetry, C_2v (mm2)  double point group:

     e(  1 -  2) =    -61.82031  eV     2   --> G_5  D_5       
     e(  3 -  4) =    -37.55522  eV     2   --> G_5  D_5       
     e(  5 -  6) =    -35.11820  eV     2   --> G_5  D_5       
     e(  7 -  8) =    -34.98147  eV     2   --> G_5  D_5       
     e(  9 - 10) =    -14.93104  eV     2   --> G_5  D_5       
     e( 11 - 12) =    -13.69826  eV     2   --> G_5  D_5       
     e( 13 - 14) =     -6.44934  eV     2   --> G_5  D_5       
     e( 15 - 16) =     -3.78529  eV     2   --> G_5  D_5       
     e( 17 - 18) =     -3.44579  eV     2   --> G_5  D_5       
     e( 19 - 20) =     -3.21851  eV     2   --> G_5  D_5       
     e( 21 - 22) =     -2.61256  eV     2   --> G_5  D_5       
     e( 23 - 24) =     -2.12811  eV     2   --> G_5  D_5       
     e( 25 - 26) =     -1.02504  eV     2   --> G_5  D_5       
     e( 27 - 28) =      1.65790  eV     2   --> G_5  D_5       
     e( 29 - 30) =      1.76659  eV     2   --> G_5  D_5       
     e( 31 - 32) =      1.92110  eV     2   --> G_5  D_5       
     e( 33 - 34) =      1.99607  eV     2   --> G_5  D_5       
     e( 35 - 36) =      4.15851  eV     2   --> G_5  D_5       
     e( 37 - 38) =      4.44471  eV     2   --> G_5  D_5       
     e( 39 - 40) =      4.94528  eV     2   --> G_5  D_5       
     e( 41 - 42) =      5.83022  eV     2   --> G_5  D_5       
     e( 43 - 44) =      6.04853  eV     2   --> G_5  D_5       
     e( 45 - 46) =      7.21402  eV     2   --> G_5  D_5       
     e( 47 - 48) =      8.50063  eV     2   --> G_5  D_5       
     e( 49 - 50) =      8.90964  eV     2   --> G_5  D_5       
     e( 51 - 52) =      9.40516  eV     2   --> G_5  D_5       
     e( 53 - 54) =     10.12657  eV     2   --> G_5  D_5       
     e( 55 - 56) =     10.30507  eV     2   --> G_5  D_5       
     e( 57 - 58) =     11.08682  eV     2   --> G_5  D_5       
     e( 59 - 60) =     11.81948  eV     2   --> G_5  D_5       

 **************************************************************************

 **************************************************************************

                    xk=(   0.06667,   0.03849,   0.00000  )

     Band symmetry, C_2v (mm2)  double point group:

     e(  1 -  2) =    -61.82116  eV     2   --> G_5  D_5       
     e(  3 -  4) =    -37.55279  eV     2   --> G_5  D_5       
     e(  5 -  6) =    -35.11710  eV     2   --> G_5  D_5       
     e(  7 -  8) =    -34.97565  eV     2   --> G_5  D_5       
     e(  9 - 10) =    -14.96752  eV     2   --> G_5  D_5       
     e( 11 - 12) =    -13.71344  eV     2   --> G_5  D_5       
     e( 13 - 14) =     -6.49060  eV     2   --> G_5  D_5       
     e( 15 - 16) =     -3.70814  eV     2   --> G_5  D_5       
     e( 17 - 18) =     -3.48119  eV     2   --> G_5  D_5       
     e( 19 - 20) =     -3.09704  eV     2   --> G_5  D_5       
     e( 21 - 22) =     -2.55729  eV     2   --> G_5  D_5       
     e( 23 - 24) =     -2.18969  eV     2   --> G_5  D_5       
     e( 25 - 26) =     -1.00464  eV     2   --> G_5  D_5       
     e( 27 - 28) =      1.69653  eV     2   --> G_5  D_5       
     e( 29 - 30) =      1.84740  eV     2   --> G_5  D_5       
     e( 31 - 32) =      1.92386  eV     2   --> G_5  D_5       
     e( 33 - 34) =      1.97956  eV     2   --> G_5  D_5       
     e( 35 - 36) =      4.10539  eV     2   --> G_5  D_5       
     e( 37 - 38) =      4.39550  eV     2   --> G_5  D_5       
     e( 39 - 40) =      4.88166  eV     2   --> G_5  D_5       
     e( 41 - 42) =      5.68084  eV     2   --> G_5  D_5       
     e( 43 - 44) =      6.00157  eV     2   --> G_5  D_5       
     e( 45 - 46) =      7.16467  eV     2   --> G_5  D_5       
     e( 47 - 48) =      8.34882  eV     2   --> G_5  D_5       
     e( 49 - 50) =      8.86628  eV     2   --> G_5  D_5       
     e( 51 - 52) =      9.51150  eV     2   --> G_5  D_5       
     e( 53 - 54) =     10.01414  eV     2   --> G_5  D_5       
     e( 55 - 56) =     10.24013  eV     2   --> G_5  D_5       
     e( 57 - 58) =     11.30158  eV     2   --> G_5  D_5       
     e( 59 - 60) =     11.82550  eV     2   --> G_5  D_5       

 **************************************************************************

 **************************************************************************

                    xk=(   0.05000,   0.02887,   0.00000  )

     Band symmetry, C_2v (mm2)  double point group:

     e(  1 -  2) =    -61.82186  eV     2   --> G_5  D_5       
     e(  3 -  4) =    -37.55088  eV     2   --> G_5  D_5       
     e(  5 -  6) =    -35.11628  eV     2   --> G_5  D_5       
     e(  7 -  8) =    -34.97099  eV     2   --> G_5  D_5       
     e(  9 - 10) =    -14.99614  eV     2   --> G_5  D_5       
     e( 11 - 12) =    -13.72534  eV     2   --> G_5  D_5       
     e( 13 - 14) =     -6.52343  eV     2   --> G_5  D_5       
     e( 15 - 16) =     -3.64739  eV     2   --> G_5  D_5       
     e( 17 - 18) =     -3.50743  eV     2   --> G_5  D_5       
     e( 19 - 20) =     -2.97979  eV     2   --> G_5  D_5       
     e( 21 - 22) =     -2.51355  eV     2   --> G_5  D_5       
     e( 23 - 24) =     -2.26068  eV     2   --> G_5  D_5       
     e( 25 - 26) =     -0.99021  eV     2   --> G_5  D_5       
     e( 27 - 28) =      1.73006  eV     2   --> G_5  D_5       
     e( 29 - 30) =      1.86766  eV     2   --> G_5  D_5       
     e( 31 - 32) =      1.94109  eV     2   --> G_5  D_5       
     e( 33 - 34) =      2.00510  eV     2   --> G_5  D_5       
     e( 35 - 36) =      4.06283  eV     2   --> G_5  D_5       
     e( 37 - 38) =      4.35707  eV     2   --> G_5  D_5       
     e( 39 - 40) =      4.82741  eV     2   --> G_5  D_5       
     e( 41 - 42) =      5.56209  eV     2   --> G_5  D_5       
     e( 43 - 44) =      5.96485  eV     2   --> G_5  D_5       
     e( 45 - 46) =      7.12610  eV     2   --> G_5  D_5       
     e( 47 - 48) =      8.22100  eV     2   --> G_5  D_5       
     e( 49 - 50) =      8.83252  eV     2   --> G_5  D_5       
     e( 51 - 52) =      9.61066  eV     2   --> G_5  D_5       
     e( 53 - 54) =      9.92582  eV     2   --> G_5  D_5       
     e( 55 - 56) =     10.17638  eV     2   --> G_5  D_5       
     e( 57 - 58) =     11.49863  eV     2   --> G_5  D_5       
     e( 59 - 60) =     11.81751  eV     2   --> G_5  D_5       

 **************************************************************************

 **************************************************************************

                    xk=(   0.03333,   0.01925,   0.00000  )

     Band symmetry, C_2v (mm2)  double point group:

     e(  1 -  2) =    -61.82242  eV     2   --> G_5  D_5       
     e(  3 -  4) =    -37.54952  eV     2   --> G_5  D_5       
     e(  5 -  6) =    -35.11572  eV     2   --> G_5  D_5       
     e(  7 -  8) =    -34.96760  eV     2   --> G_5  D_5       
     e(  9 - 10) =    -15.01670  eV     2   --> G_5  D_5       
     e( 11 - 12) =    -13.73389  eV     2   --> G_5  D_5       
     e( 13 - 14) =     -6.54726  eV     2   --> G_5  D_5       
     e( 15 - 16) =     -3.60715  eV     2   --> G_5  D_5       
     e( 17 - 18) =     -3.52177  eV     2   --> G_5  D_5       
     e( 19 - 20) =     -2.87087  eV     2   --> G_5  D_5       
     e( 21 - 22) =     -2.48479  eV     2   --> G_5  D_5       
     e( 23 - 24) =     -2.33400  eV     2   --> G_5  D_5       
     e( 25 - 26) =     -0.98071  eV     2   --> G_5  D_5       
     e( 27 - 28) =      1.75198  eV     2   --> G_5  D_5       
     e( 29 - 30) =      1.84658  eV     2   --> G_5  D_5       
     e( 31 - 32) =      1.99561  eV     2   --> G_5  D_5       
     e( 33 - 34) =      2.02737  eV     2   --> G_5  D_5       
     e( 35 - 36) =      4.03150  eV     2   --> G_5  D_5       
     e( 37 - 38) =      4.32951  eV     2   --> G_5  D_5       
     e( 39 - 40) =      4.78512  eV     2   --> G_5  D_5       
     e( 41 - 42) =      5.47656  eV     2   --> G_5  D_5       
     e( 43 - 44) =      5.93850  eV     2   --> G_5  D_5       
     e( 45 - 46) =      7.09839  eV     2   --> G_5  D_5       
     e( 47 - 48) =      8.12464  eV     2   --> G_5  D_5       
     e( 49 - 50) =      8.80829  eV     2   --> G_5  D_5       
     e( 51 - 52) =      9.69665  eV     2   --> G_5  D_5       
     e( 53 - 54) =      9.86488  eV     2   --> G_5  D_5       
     e( 55 - 56) =     10.11517  eV     2   --> G_5  D_5       
     e( 57 - 58) =     11.66000  eV     2   --> G_5  D_5       
     e( 59 - 60) =     11.81101  eV     2   --> G_5  D_5       

 **************************************************************************

 **************************************************************************

                    xk=(   0.01667,   0.00962,   0.00000  )

     Band symmetry, C_2v (mm2)  double point group:

     e(  1 -  2) =    -61.82275  eV     2   --> G_5  D_5       
     e(  3 -  4) =    -37.54870  eV     2   --> G_5  D_5       
     e(  5 -  6) =    -35.11539  eV     2   --> G_5  D_5       
     e(  7 -  8) =    -34.96554  eV     2   --> G_5  D_5       
     e(  9 - 10) =    -15.02909  eV     2   --> G_5  D_5       
     e( 11 - 12) =    -13.73905  eV     2   --> G_5  D_5       
     e( 13 - 14) =     -6.56171  eV     2   --> G_5  D_5       
     e( 15 - 16) =     -3.58960  eV     2   --> G_5  D_5       
     e( 17 - 18) =     -3.52323  eV     2   --> G_5  D_5       
     e( 19 - 20) =     -2.78063  eV     2   --> G_5  D_5       
     e( 21 - 22) =     -2.47985  eV     2   --> G_5  D_5       
     e( 23 - 24) =     -2.39052  eV     2   --> G_5  D_5       
     e( 25 - 26) =     -0.97532  eV     2   --> G_5  D_5       
     e( 27 - 28) =      1.75899  eV     2   --> G_5  D_5       
     e( 29 - 30) =      1.83888  eV     2   --> G_5  D_5       
     e( 31 - 32) =      2.03270  eV     2   --> G_5  D_5       
     e( 33 - 34) =      2.04141  eV     2   --> G_5  D_5       
     e( 35 - 36) =      4.01222  eV     2   --> G_5  D_5       
     e( 37 - 38) =      4.31294  eV     2   --> G_5  D_5       
     e( 39 - 40) =      4.75794  eV     2   --> G_5  D_5       
     e( 41 - 42) =      5.42524  eV     2   --> G_5  D_5       
     e( 43 - 44) =      5.92265  eV     2   --> G_5  D_5       
     e( 45 - 46) =      7.08169  eV     2   --> G_5  D_5       
     e( 47 - 48) =      8.06481  eV     2   --> G_5  D_5       
     e( 49 - 50) =      8.79370  eV     2   --> G_5  D_5       
     e( 51 - 52) =      9.75354  eV     2   --> G_5  D_5       
     e( 53 - 54) =      9.83992  eV     2   --> G_5  D_5       
     e( 55 - 56) =     10.06238  eV     2   --> G_5  D_5       
     e( 57 - 58) =     11.76487  eV     2   --> G_5  D_5       
     e( 59 - 60) =     11.80940  eV     2   --> G_5  D_5       

 **************************************************************************

 **************************************************************************

                    xk=(   0.00000,   0.00000,   0.00000  )

     double point group D_3h (-62m)
     there are  9 classes and  3 irreducible representations
     the character table:

       E     -E    2C3   -2C3   3C2'  s_h  2S3   -2S3   3s_v
                               -3C2' -s_h'             -3s_v
G_7    2.00 -2.00  1.00 -1.00  0.00  0.00  1.73 -1.73  0.00
G_8    2.00 -2.00  1.00 -1.00  0.00  0.00 -1.73  1.73  0.00
G_9    2.00 -2.00 -2.00  2.00  0.00  0.00  0.00  0.00  0.00

     the symmetry operations in each class and the name of the first element:

     E             1
                                                                 
     -E           -1
                                                                 
     2C3           3    4
                                                                 
     -2C3         -3   -4
                                                                 
      3C2'-3C2'    2   -6    5   -2   -5    6
                                                                 
     2S3           9   10
                                                                 
     -2S3         -9  -10
                                                                 
      3s_v-3s_v    7   -7
                                                                 
      3s_v-3s_v    8   -8  -11  -12   11   12
                                                                 

     Band symmetry, D_3h (-62m) double point group:

     e(  1 -  2) =    -61.82282  eV     2   --> G_7            
     e(  3 -  4) =    -37.54842  eV     2   --> G_8            
     e(  5 -  6) =    -35.11528  eV     2   --> G_8            
     e(  7 -  8) =    -34.96483  eV     2   --> G_9            
     e(  9 - 10) =    -15.03323  eV     2   --> G_7            
     e( 11 - 12) =    -13.74077  eV     2   --> G_8            
     e( 13 - 14) =     -6.56654  eV     2   --> G_7            
     e( 15 - 16) =     -3.58616  eV     2   --> G_9            
     e( 17 - 18) =     -3.52119  eV     2   --> G_8            
     e( 19 - 20) =     -2.73981  eV     2   --> G_8            
     e( 21 - 22) =     -2.49160  eV     2   --> G_7            
     e( 23 - 24) =     -2.40668  eV     2   --> G_9            
     e( 25 - 26) =     -0.97357  eV     2   --> G_7            
     e( 27 - 28) =      1.75919  eV     2   --> G_7            
     e( 29 - 30) =      1.83852  eV     2   --> G_9            
     e( 31 - 34) =      2.04586  eV     4   --> G_8            
     e( 31 - 34) =      2.04586  eV     4   --> G_9            
     e( 35 - 36) =      4.00569  eV     2   --> G_7            
     e( 37 - 38) =      4.30740  eV     2   --> G_8            
     e( 39 - 40) =      4.74853  eV     2   --> G_7            
     e( 41 - 42) =      5.40817  eV     2   --> G_7            
     e( 43 - 44) =      5.91735  eV     2   --> G_8            
     e( 45 - 46) =      7.07611  eV     2   --> G_7            
     e( 47 - 48) =      8.04454  eV     2   --> G_8            
     e( 49 - 50) =      8.78883  eV     2   --> G_8            
     e( 51 - 52) =      9.76631  eV     2   --> G_8            
     e( 53 - 54) =      9.84484  eV     2   --> G_9            
     e( 55 - 56) =     10.03791  eV     2   --> G_7            
     e( 57 - 58) =     11.79316  eV     2   --> G_7            
     e( 59 - 60) =     11.81713  eV     2   --> G_9            

 **************************************************************************

     BANDS        :   1m43.73s CPU   2m 4.61s WALL


   This run was terminated on:  16:22:27   1Jan2023            

=------------------------------------------------------------------------------=
   JOB DONE.
=------------------------------------------------------------------------------=
