
     Program PWSCF v.6.7MaX starts on  1Jan2023 at 16:11:29 

     This program is part of the open-source Quantum ESPRESSO suite
     for quantum simulation of materials; please cite
         "P. Giannozzi et al., J. Phys.:Condens. Matter 21 395502 (2009);
         "P. Giannozzi et al., J. Phys.:Condens. Matter 29 465901 (2017);
          URL http://www.quantum-espresso.org", 
     in publications or presentations arising from this work. More details at
     http://www.quantum-espresso.org/quote

     Parallel version (MPI), running on     4 processors

     MPI processes distributed on     1 nodes
     R & G space division:  proc/nbgrp/npool/nimage =       4
     Waiting for input...
     Reading input from standard input

     Current dimensions of program PWSCF are:
     Max number of different atomic species (ntypx) = 10
     Max number of k-points (npk) =  40000
     Max angular momentum in pseudopotentials (lmaxx) =  3

     Atomic positions and unit cell read from directory:
     ../tmp/mos2.save/
     Atomic positions from file used, from input discarded

     file Mo.rel-pbe-spn-rrkjus_psl.1.0.0.UPF: wavefunction(s)  4S renormalized

     Subspace diagonalization in iterative solution of the eigenvalue problem:
     one sub-group per band group will be used
     scalapack distributed-memory algorithm (size of sub-group:  2*  2 procs)


     Parallelization info
     --------------------
     sticks:   dense  smooth     PW     G-vecs:    dense   smooth      PW
     Min         148     148     42                18582    18582    2966
     Max         149     149     43                18603    18603    2970
     Sum         595     595    169                74365    74365   11873



     bravais-lattice index     =            4
     lattice parameter (alat)  =       6.0141  a.u.
     unit-cell volume          =    1183.8569 (a.u.)^3
     number of atoms/cell      =            3
     number of atomic types    =            2
     number of electrons       =        26.00
     number of Kohn-Sham states=           60
     kinetic-energy cutoff     =      60.0000  Ry
     charge density cutoff     =     240.0000  Ry
     Exchange-correlation= PBE
                           (   1   4   3   4   0   0   0)
     Non magnetic calculation with spin-orbit


     celldm(1)=   6.014089  celldm(2)=   0.000000  celldm(3)=   6.284330
     celldm(4)=   0.000000  celldm(5)=   0.000000  celldm(6)=   0.000000

     crystal axes: (cart. coord. in units of alat)
               a(1) = (   1.000000   0.000000   0.000000 )  
               a(2) = (  -0.500000   0.866025   0.000000 )  
               a(3) = (   0.000000   0.000000   6.284330 )  

     reciprocal axes: (cart. coord. in units 2 pi/alat)
               b(1) = (  1.000000  0.577350 -0.000000 )  
               b(2) = (  0.000000  1.154701  0.000000 )  
               b(3) = (  0.000000 -0.000000  0.159126 )  


     PseudoPot. # 1 for Mo read from file:
     ../pseudo/Mo.rel-pbe-spn-rrkjus_psl.1.0.0.UPF
     MD5 check sum: efb2e050edcba4ab52b616d1147efb03
     Pseudo is Ultrasoft + core correction, Zval = 14.0
     Generated using &quot;atomic&quot; code by A. Dal Corso  v.6.3
     Using radial grid of 1229 points, 10 beta functions with: 
                l(1) =   0
                l(2) =   0
                l(3) =   1
                l(4) =   1
                l(5) =   1
                l(6) =   1
                l(7) =   2
                l(8) =   2
                l(9) =   2
               l(10) =   2
     Q(r) pseudized with 0 coefficients 


     PseudoPot. # 2 for S  read from file:
     ../pseudo/S.rel-pbe-nl-rrkjus_psl.1.0.0.UPF
     MD5 check sum: 80b074254335e853e3620d9b035327a4
     Pseudo is Ultrasoft + core correction, Zval =  6.0
     Generated using &quot;atomic&quot; code by A. Dal Corso  v.6.3
     Using radial grid of 1151 points,  6 beta functions with: 
                l(1) =   0
                l(2) =   0
                l(3) =   1
                l(4) =   1
                l(5) =   1
                l(6) =   1
     Q(r) pseudized with 0 coefficients 


     atomic species   valence    mass     pseudopotential
        Mo            14.00    95.94000     Mo( 1.00)
        S              6.00    32.06500     S ( 1.00)

     12 Sym. Ops. (no inversion) found



   Cartesian axes

     site n.     atom                  positions (alat units)
         1           Mo  tau(   1) = (   0.0000000   0.0000000   3.1421652  )
         2           S   tau(   2) = (  -0.0000000   0.5773503   2.6504465  )
         3           S   tau(   3) = (  -0.0000000   0.5773503   3.6338831  )

     number of k points=    91
                       cart. coord. in units 2pi/alat
        k(    1) = (   0.0000000   0.0000000   0.0000000), wk =   0.0109890
        k(    2) = (   0.0166667   0.0000000   0.0000000), wk =   0.0109890
        k(    3) = (   0.0333333   0.0000000   0.0000000), wk =   0.0109890
        k(    4) = (   0.0500000   0.0000000   0.0000000), wk =   0.0109890
        k(    5) = (   0.0666667   0.0000000   0.0000000), wk =   0.0109890
        k(    6) = (   0.0833333   0.0000000   0.0000000), wk =   0.0109890
        k(    7) = (   0.1000000   0.0000000   0.0000000), wk =   0.0109890
        k(    8) = (   0.1166667   0.0000000   0.0000000), wk =   0.0109890
        k(    9) = (   0.1333333   0.0000000   0.0000000), wk =   0.0109890
        k(   10) = (   0.1500000   0.0000000   0.0000000), wk =   0.0109890
        k(   11) = (   0.1666667   0.0000000   0.0000000), wk =   0.0109890
        k(   12) = (   0.1833333   0.0000000   0.0000000), wk =   0.0109890
        k(   13) = (   0.2000000   0.0000000   0.0000000), wk =   0.0109890
        k(   14) = (   0.2166667   0.0000000   0.0000000), wk =   0.0109890
        k(   15) = (   0.2333333   0.0000000   0.0000000), wk =   0.0109890
        k(   16) = (   0.2500000   0.0000000   0.0000000), wk =   0.0109890
        k(   17) = (   0.2666667   0.0000000   0.0000000), wk =   0.0109890
        k(   18) = (   0.2833333   0.0000000   0.0000000), wk =   0.0109890
        k(   19) = (   0.3000000   0.0000000   0.0000000), wk =   0.0109890
        k(   20) = (   0.3166667   0.0000000   0.0000000), wk =   0.0109890
        k(   21) = (   0.3333333   0.0000000   0.0000000), wk =   0.0109890
        k(   22) = (   0.3500000   0.0000000   0.0000000), wk =   0.0109890
        k(   23) = (   0.3666667   0.0000000   0.0000000), wk =   0.0109890
        k(   24) = (   0.3833333   0.0000000   0.0000000), wk =   0.0109890
        k(   25) = (   0.4000000   0.0000000   0.0000000), wk =   0.0109890
        k(   26) = (   0.4166667   0.0000000   0.0000000), wk =   0.0109890
        k(   27) = (   0.4333333   0.0000000   0.0000000), wk =   0.0109890
        k(   28) = (   0.4500000   0.0000000   0.0000000), wk =   0.0109890
        k(   29) = (   0.4666667   0.0000000   0.0000000), wk =   0.0109890
        k(   30) = (   0.4833333   0.0000000   0.0000000), wk =   0.0109890
        k(   31) = (   0.5000000   0.0000000   0.0000000), wk =   0.0109890
        k(   32) = (   0.5166667   0.0000000   0.0000000), wk =   0.0109890
        k(   33) = (   0.5333333   0.0000000   0.0000000), wk =   0.0109890
        k(   34) = (   0.5500000   0.0000000   0.0000000), wk =   0.0109890
        k(   35) = (   0.5666667   0.0000000   0.0000000), wk =   0.0109890
        k(   36) = (   0.5833333   0.0000000   0.0000000), wk =   0.0109890
        k(   37) = (   0.6000000   0.0000000   0.0000000), wk =   0.0109890
        k(   38) = (   0.6166667   0.0000000   0.0000000), wk =   0.0109890
        k(   39) = (   0.6333333   0.0000000   0.0000000), wk =   0.0109890
        k(   40) = (   0.6500000   0.0000000   0.0000000), wk =   0.0109890
        k(   41) = (   0.6666667   0.0000000   0.0000000), wk =   0.0109890
        k(   42) = (   0.6583333   0.0144338   0.0000000), wk =   0.0109890
        k(   43) = (   0.6500000   0.0288675   0.0000000), wk =   0.0109890
        k(   44) = (   0.6416667   0.0433013   0.0000000), wk =   0.0109890
        k(   45) = (   0.6333333   0.0577350   0.0000000), wk =   0.0109890
        k(   46) = (   0.6250000   0.0721688   0.0000000), wk =   0.0109890
        k(   47) = (   0.6166667   0.0866025   0.0000000), wk =   0.0109890
        k(   48) = (   0.6083333   0.1010363   0.0000000), wk =   0.0109890
        k(   49) = (   0.6000000   0.1154701   0.0000000), wk =   0.0109890
        k(   50) = (   0.5916667   0.1299038   0.0000000), wk =   0.0109890
        k(   51) = (   0.5833333   0.1443376   0.0000000), wk =   0.0109890
        k(   52) = (   0.5750000   0.1587713   0.0000000), wk =   0.0109890
        k(   53) = (   0.5666667   0.1732051   0.0000000), wk =   0.0109890
        k(   54) = (   0.5583333   0.1876388   0.0000000), wk =   0.0109890
        k(   55) = (   0.5500000   0.2020726   0.0000000), wk =   0.0109890
        k(   56) = (   0.5416667   0.2165064   0.0000000), wk =   0.0109890
        k(   57) = (   0.5333333   0.2309401   0.0000000), wk =   0.0109890
        k(   58) = (   0.5250000   0.2453739   0.0000000), wk =   0.0109890
        k(   59) = (   0.5166667   0.2598076   0.0000000), wk =   0.0109890
        k(   60) = (   0.5083333   0.2742414   0.0000000), wk =   0.0109890
        k(   61) = (   0.5000000   0.2886751   0.0000000), wk =   0.0109890
        k(   62) = (   0.4833333   0.2790526   0.0000000), wk =   0.0109890
        k(   63) = (   0.4666667   0.2694301   0.0000000), wk =   0.0109890
        k(   64) = (   0.4500000   0.2598076   0.0000000), wk =   0.0109890
        k(   65) = (   0.4333333   0.2501851   0.0000000), wk =   0.0109890
        k(   66) = (   0.4166667   0.2405626   0.0000000), wk =   0.0109890
        k(   67) = (   0.4000000   0.2309401   0.0000000), wk =   0.0109890
        k(   68) = (   0.3833333   0.2213176   0.0000000), wk =   0.0109890
        k(   69) = (   0.3666667   0.2116951   0.0000000), wk =   0.0109890
        k(   70) = (   0.3500000   0.2020726   0.0000000), wk =   0.0109890
        k(   71) = (   0.3333333   0.1924501   0.0000000), wk =   0.0109890
        k(   72) = (   0.3166667   0.1828276   0.0000000), wk =   0.0109890
        k(   73) = (   0.3000000   0.1732051   0.0000000), wk =   0.0109890
        k(   74) = (   0.2833333   0.1635826   0.0000000), wk =   0.0109890
        k(   75) = (   0.2666667   0.1539601   0.0000000), wk =   0.0109890
        k(   76) = (   0.2500000   0.1443376   0.0000000), wk =   0.0109890
        k(   77) = (   0.2333333   0.1347151   0.0000000), wk =   0.0109890
        k(   78) = (   0.2166667   0.1250926   0.0000000), wk =   0.0109890
        k(   79) = (   0.2000000   0.1154701   0.0000000), wk =   0.0109890
        k(   80) = (   0.1833333   0.1058475   0.0000000), wk =   0.0109890
        k(   81) = (   0.1666667   0.0962250   0.0000000), wk =   0.0109890
        k(   82) = (   0.1500000   0.0866025   0.0000000), wk =   0.0109890
        k(   83) = (   0.1333333   0.0769800   0.0000000), wk =   0.0109890
        k(   84) = (   0.1166667   0.0673575   0.0000000), wk =   0.0109890
        k(   85) = (   0.1000000   0.0577350   0.0000000), wk =   0.0109890
        k(   86) = (   0.0833333   0.0481125   0.0000000), wk =   0.0109890
        k(   87) = (   0.0666667   0.0384900   0.0000000), wk =   0.0109890
        k(   88) = (   0.0500000   0.0288675   0.0000000), wk =   0.0109890
        k(   89) = (   0.0333333   0.0192450   0.0000000), wk =   0.0109890
        k(   90) = (   0.0166667   0.0096225   0.0000000), wk =   0.0109890
        k(   91) = (   0.0000000   0.0000000   0.0000000), wk =   0.0109890

     Dense  grid:    74365 G-vectors     FFT dimensions: (  30,  30, 192)

     Estimated max dynamical RAM per process >     199.14 MB

     Estimated total dynamical RAM >     796.55 MB

     The potential is recalculated from file :
     ../tmp/mos2.save/charge-density


     negative rho (up, down):  2.832E-03 0.000E+00
     Starting wfcs are   36 randomized atomic wfcs +   24 random wfcs

     Band Structure Calculation
     Davidson diagonalization with overlap

     ethr =  3.85E-09,  avg # of iterations = 36.3

     total cpu time spent up to now is      531.8 secs

     End of band structure calculation

          k = 0.0000 0.0000 0.0000 (  9363 PWs)   bands (ev):

   -61.8228 -61.8228 -37.5484 -37.5484 -35.1153 -35.1153 -34.9648 -34.9648
   -15.0332 -15.0332 -13.7408 -13.7408  -6.5665  -6.5665  -3.5862  -3.5862
    -3.5212  -3.5212  -2.7398  -2.7398  -2.4916  -2.4916  -2.4067  -2.4067
    -0.9736  -0.9736   1.7592   1.7592   1.8385   1.8385   2.0459   2.0459
     2.0459   2.0459   4.0057   4.0057   4.3074   4.3074   4.7485   4.7485
     5.4082   5.4082   5.9174   5.9174   7.0761   7.0761   8.0445   8.0445
     8.7888   8.7888   9.7663   9.7663   9.8448   9.8448  10.0379  10.0379
    11.7932  11.7932  11.8171  11.8171

          k = 0.0167 0.0000 0.0000 (  9383 PWs)   bands (ev):

   -61.8228 -61.8228 -37.5486 -37.5486 -35.1154 -35.1154 -34.9654 -34.9654
   -15.0301 -15.0301 -13.7395 -13.7395  -6.5629  -6.5629  -3.5887  -3.5885
    -3.5230  -3.5227  -2.7713  -2.7712  -2.4819  -2.4811  -2.3954  -2.3947
    -0.9749  -0.9749   1.7588   1.7595   1.8384   1.8390   2.0348   2.0376
     2.0409   2.0437   4.0106   4.0106   4.3116   4.3116   4.7556   4.7556
     5.4210   5.4210   5.9213   5.9213   7.0803   7.0803   8.0598   8.0598
     8.7925   8.7925   9.7574   9.7576   9.8398   9.8399  10.0567  10.0569
    11.7726  11.7738  11.8092  11.8108

          k = 0.0333 0.0000 0.0000 (  9375 PWs)   bands (ev):

   -61.8225 -61.8225 -37.5493 -37.5492 -35.1156 -35.1156 -34.9669 -34.9669
   -15.0208 -15.0208 -13.7356 -13.7356  -6.5521  -6.5521  -3.6012  -3.5995
    -3.5242  -3.5224  -2.8442  -2.8440  -2.4825  -2.4790  -2.3536  -2.3503
    -0.9789  -0.9789   1.7528   1.7576   1.8411   1.8451   2.0052   2.0109
     2.0290   2.0343   4.0251   4.0251   4.3240   4.3240   4.7762   4.7762
     5.4594   5.4595   5.9332   5.9332   7.0928   7.0928   8.1049   8.1049
     8.8034   8.8034   9.7154   9.7167   9.8537   9.8539  10.0993  10.1003
    11.6936  11.6960  11.8077  11.8117

          k = 0.0500 0.0000 0.0000 (  9353 PWs)   bands (ev):

   -61.8221 -61.8221 -37.5503 -37.5503 -35.1160 -35.1160 -34.9695 -34.9694
   -15.0054 -15.0054 -13.7292 -13.7292  -6.5341  -6.5341  -3.6304  -3.6264
    -3.5169  -3.5129  -2.9344  -2.9343  -2.5038  -2.4982  -2.2926  -2.2867
    -0.9859  -0.9858   1.7348   1.7461   1.8546   1.8621   1.9596   1.9697
     2.0108   2.0178   4.0488   4.0489   4.3447   4.3447   4.8088   4.8089
     5.5236   5.5237   5.9530   5.9530   7.1136   7.1137   8.1782   8.1782
     8.8216   8.8216   9.6469   9.6497   9.8960   9.8962  10.1504  10.1534
    11.5684  11.5713  11.8101  11.8165

          k = 0.0667 0.0000 0.0000 (  9347 PWs)   bands (ev):

   -61.8216 -61.8216 -37.5517 -37.5517 -35.1167 -35.1166 -34.9731 -34.9729
   -14.9839 -14.9838 -13.7202 -13.7202  -6.5094  -6.5092  -3.6761  -3.6702
    -3.4997  -3.4938  -3.0326  -3.0323  -2.5396  -2.5324  -2.2283  -2.2199
    -0.9963  -0.9962   1.7058   1.7227   1.8724   1.8747   1.9093   1.9324
     1.9891   1.9948   4.0812   4.0813   4.3736   4.3736   4.8512   4.8515
     5.6131   5.6135   5.9806   5.9806   7.1426   7.1427   8.2769   8.2771
     8.8470   8.8470   9.5662   9.5707   9.9573   9.9590  10.2050  10.2114
    11.4111  11.4144  11.8131  11.8226

          k = 0.0833 0.0000 0.0000 (  9363 PWs)   bands (ev):

   -61.8209 -61.8209 -37.5536 -37.5535 -35.1175 -35.1174 -34.9776 -34.9773
   -14.9565 -14.9562 -13.7088 -13.7088  -6.4780  -6.4777  -3.7354  -3.7279
    -3.4745  -3.4672  -3.1348  -3.1334  -2.5875  -2.5792  -2.1670  -2.1559
    -1.0108  -1.0105   1.6700   1.6907   1.8236   1.8251   1.9304   1.9307
     1.9676   1.9859   4.1218   4.1219   4.4106   4.4106   4.9018   4.9022
     5.7269   5.7277   6.0160   6.0160   7.1796   7.1798   8.3975   8.3977
     8.8794   8.8794   9.4793   9.4858  10.0319  10.0370  10.2627  10.2745
    11.2338  11.2375  11.8137  11.8281

          k = 0.1000 0.0000 0.0000 (  9347 PWs)   bands (ev):

   -61.8201 -61.8201 -37.5559 -37.5556 -35.1185 -35.1183 -34.9830 -34.9825
   -14.9232 -14.9228 -13.6949 -13.6949  -6.4405  -6.4400  -3.8058  -3.7970
    -3.4426  -3.4351  -3.2387  -3.2348  -2.6469  -2.6380  -2.1110  -2.0971
    -1.0300  -1.0294   1.6312   1.6531   1.7502   1.7524   1.9024   1.9251
     1.9904   2.0314   4.1702   4.1704   4.4557   4.4557   4.9590   4.9596
     5.8633   5.8647   6.0590   6.0590   7.2247   7.2250   8.5352   8.5354
     8.9187   8.9188   9.3894   9.3981  10.1142  10.1249  10.3253  10.3451
    11.0466  11.0508  11.8068  11.8235

          k = 0.1167 0.0000 0.0000 (  9335 PWs)   bands (ev):

   -61.8191 -61.8191 -37.5585 -37.5581 -35.1199 -35.1195 -34.9892 -34.9883
   -14.8843 -14.8836 -13.6787 -13.6786  -6.3973  -6.3965  -3.8854  -3.8755
    -3.4059  -3.4051  -3.3428  -3.3275  -2.7175  -2.7086  -2.0614  -2.0447
    -1.0548  -1.0536   1.5924   1.6095   1.6707   1.6810   1.8613   1.8852
     2.0532   2.0963   4.2262   4.2265   4.5087   4.5087   5.0222   5.0230
     6.0197   6.0216   6.1095   6.1096   7.2779   7.2783   8.6840   8.6841
     8.9652   8.9654   9.2987   9.3095  10.1971  10.2155  10.3961  10.4264
    10.8579  10.8627  11.7870  11.7970

          k = 0.1333 0.0000 0.0000 (  9327 PWs)   bands (ev):

   -61.8180 -61.8180 -37.5616 -37.5610 -35.1214 -35.1210 -34.9962 -34.9948
   -14.8399 -14.8388 -13.6601 -13.6601  -6.3491  -6.3478  -3.9722  -3.9615
    -3.4554  -3.4472  -3.3615  -3.3354  -2.7992  -2.7908  -2.0188  -1.9992
    -1.0860  -1.0839   1.5540   1.5552   1.5905   1.6234   1.8147   1.8400
     2.1257   2.1710   4.2897   4.2901   4.5697   4.5697   5.0910   5.0920
     6.1670   6.1672   6.1935   6.1959   7.3393   7.3400   8.8348   8.8353
     9.0195   9.0203   9.2095   9.2218  10.2745  10.3002  10.4784  10.5193
    10.6758  10.6814  11.7590  11.7656

          k = 0.1500 0.0000 0.0000 (  9323 PWs)   bands (ev):

   -61.8168 -61.8168 -37.5650 -37.5641 -35.1234 -35.1227 -35.0037 -35.0018
   -14.7902 -14.7887 -13.6394 -13.6393  -6.2965  -6.2947  -4.0643  -4.0529
    -3.5513  -3.5492  -3.3144  -3.2906  -2.8915  -2.8842  -1.9832  -1.9610
    -1.1242  -1.1208   1.4864   1.5039   1.5304   1.5844   1.7652   1.7915
     2.2057   2.2530   4.3607   4.3612   4.6386   4.6386   5.1653   5.1666
     6.2326   6.2326   6.3800   6.3832   7.4094   7.4103   8.9715   8.9731
     9.0781   9.0866   9.1324   9.1391  10.3435  10.3733  10.5069  10.5151
    10.5726  10.6199  11.7331  11.7388

          k = 0.1667 0.0000 0.0000 (  9313 PWs)   bands (ev):

   -61.8155 -61.8155 -37.5687 -37.5676 -35.1256 -35.1248 -35.0117 -35.0092
   -14.7356 -14.7335 -13.6166 -13.6164  -6.2407  -6.2381  -4.1596  -4.1480
    -3.6492  -3.6484  -3.2639  -3.2384  -2.9935  -2.9880  -1.9548  -1.9300
    -1.1699  -1.1646   1.4166   1.4289   1.5034   1.5573   1.7146   1.7417
     2.2915   2.3406   4.4391   4.4397   4.7152   4.7152   5.2453   5.2469
     6.3049   6.3049   6.5764   6.5803   7.4889   7.4903   9.0208   9.0426
     9.0796   9.0807   9.1864   9.1884  10.3686  10.3776  10.4038  10.4346
    10.6627  10.7158  11.7214  11.7276

          k = 0.1833 0.0000 0.0000 (  9307 PWs)   bands (ev):

   -61.8141 -61.8141 -37.5727 -37.5713 -35.1283 -35.1273 -35.0200 -35.0168
   -14.6762 -14.6734 -13.5918 -13.5915  -6.1826  -6.1791  -4.2561  -4.2446
    -3.7466  -3.7435  -3.2120  -3.1829  -3.1032  -3.1009  -1.9333  -1.9063
    -1.2233  -1.2154   1.3502   1.3560   1.4858   1.5384   1.6652   1.6927
     2.3819   2.4324   4.5250   4.5257   4.7994   4.7995   5.3311   5.3329
     6.3842   6.3842   6.7781   6.7824   7.5793   7.5811   8.9409   8.9650
     9.1445   9.1446   9.2789   9.2800  10.2746  10.2862  10.4539  10.4836
    10.7401  10.7951  11.7358  11.7451

          k = 0.2000 0.0000 0.0000 (  9331 PWs)   bands (ev):

   -61.8127 -61.8127 -37.5771 -37.5752 -35.1314 -35.1302 -35.0284 -35.0245
   -14.6123 -14.6088 -13.5651 -13.5648  -6.1237  -6.1189  -4.3516  -4.3407
    -3.8413  -3.8358  -3.2283  -3.2238  -3.1512  -3.1238  -1.9188  -1.8898
    -1.2838  -1.2725   1.2874   1.2890   1.4763   1.5261   1.6193   1.6477
     2.4755   2.5268   4.6183   4.6191   4.8912   4.8913   5.4227   5.4248
     6.4701   6.4702   6.9800   6.9843   7.6825   7.6849   8.8587   8.8853
     9.1858   9.1862   9.3422   9.3450  10.2450  10.2589  10.4917  10.5173
    10.7970  10.8497  11.7290  11.7349

          k = 0.2167 0.0000 0.0000 (  9335 PWs)   bands (ev):

   -61.8112 -61.8112 -37.5817 -37.5793 -35.1350 -35.1337 -35.0369 -35.0321
   -14.5444 -14.5399 -13.5366 -13.5362  -6.0657  -6.0594  -4.4437  -4.4340
    -3.9332  -3.9250  -3.3514  -3.3505  -3.0995  -3.0661  -1.9110  -1.8802
    -1.3506  -1.3349   1.2231   1.2333   1.4747   1.5175   1.5799   1.6117
     2.5709   2.6225   4.7190   4.7199   4.9904   4.9906   5.5202   5.5227
     6.5625   6.5626   7.1761   7.1799   7.8011   7.8042   8.7773   8.8069
     9.1824   9.1840   9.3903   9.3928  10.2834  10.2984  10.5123  10.5306
    10.8385  10.8836  11.6862  11.6880

          k = 0.2333 0.0000 0.0000 (  9323 PWs)   bands (ev):

   -61.8096 -61.8096 -37.5866 -37.5836 -35.1390 -35.1377 -35.0453 -35.0397
   -14.4727 -14.4672 -13.5066 -13.5061  -6.0107  -6.0024  -4.5299  -4.5218
    -4.0229  -4.0115  -3.4837  -3.4785  -3.0483  -3.0099  -1.9097  -1.8776
    -1.4220  -1.4008   1.1630   1.1829   1.4795   1.5076   1.5500   1.5918
     2.6668   2.7182   4.8270   4.8281   5.0969   5.0971   5.6237   5.6266
     6.6610   6.6611   7.3601   7.3626   7.9374   7.9410   8.6972   8.7304
     9.1279   9.1304   9.4465   9.4479  10.3699  10.3849  10.5131  10.5214
    10.8747  10.9092  11.6385  11.6394

          k = 0.2500 0.0000 0.0000 (  9323 PWs)   bands (ev):

   -61.8079 -61.8079 -37.5916 -37.5881 -35.1436 -35.1425 -35.0532 -35.0470
   -14.3977 -14.3909 -13.4752 -13.4746  -5.9610  -5.9504  -4.6073  -4.6016
    -4.1116  -4.0963  -3.6177  -3.6076  -3.0017  -2.9579  -1.9150  -1.8816
    -1.4956  -1.4679   1.1071   1.1372   1.4863   1.4940   1.5354   1.5919
     2.7617   2.8125   4.9423   4.9436   5.2104   5.2107   5.7331   5.7364
     6.7653   6.7655   7.5272   7.5275   8.0899   8.0930   8.6203   8.6585
     9.0446   9.0472   9.5103   9.5109  10.4760  10.4861  10.4999  10.5057
    10.9101  10.9349  11.5912  11.5946

          k = 0.2667 0.0000 0.0000 (  9325 PWs)   bands (ev):

   -61.8062 -61.8062 -37.5968 -37.5926 -35.1487 -35.1479 -35.0608 -35.0539
   -14.3197 -14.3115 -13.4425 -13.4417  -5.9196  -5.9063  -4.6730  -4.6701
    -4.2011  -4.1814  -3.7495  -3.7340  -2.9631  -2.9131  -1.9265  -1.8922
    -1.5685  -1.5331   1.0561   1.0962   1.4818   1.4876   1.5435   1.6074
     2.8545   2.9042   5.0648   5.0663   5.3309   5.3313   5.8484   5.8523
     6.8751   6.8753   7.6728   7.6756   8.2434   8.2439   8.5588   8.6045
     8.9526   8.9550   9.5764   9.5764  10.4614  10.4705  10.6018  10.6155
    10.9407  10.9592  11.5502  11.5560

          k = 0.2833 0.0000 0.0000 (  9325 PWs)   bands (ev):

   -61.8045 -61.8045 -37.6022 -37.5972 -35.1542 -35.1540 -35.0678 -35.0605
   -14.2392 -14.2294 -13.4087 -13.4078  -5.8891  -5.8730  -4.7244  -4.7240
    -4.2947  -4.2703  -3.8740  -3.8528  -2.9359  -2.8793  -1.9443  -1.9093
    -1.6369  -1.5928   1.0113   1.0608   1.4757   1.4878   1.5689   1.6331
     2.9439   2.9919   5.1943   5.1962   5.4580   5.4585   5.9695   5.9740
     6.9899   6.9901   7.7971   7.8047   8.3288   8.3349   8.5776   8.6229
     8.8632   8.8653   9.6411   9.6417  10.4338  10.4484  10.7226  10.7354
    10.9556  10.9733  11.5185  11.5263

          k = 0.3000 0.0000 0.0000 (  9333 PWs)   bands (ev):

   -61.8028 -61.8028 -37.6076 -37.6018 -35.1609 -35.1600 -35.0742 -35.0667
   -14.1566 -14.1451 -13.3740 -13.3729  -5.8720  -5.8531  -4.7620  -4.7581
    -4.3957  -4.3674  -3.9850  -3.9590  -2.9237  -2.8603  -1.9681  -1.9327
    -1.6969  -1.6435   0.9744   1.0324   1.4769   1.4926   1.6038   1.6661
     3.0290   3.0748   5.3307   5.3329   5.5916   5.5922   6.0963   6.1014
     7.1091   7.1094   7.8927   7.9081   8.3037   8.3295   8.7204   8.7500
     8.7831   8.7878   9.7034   9.7047  10.4183  10.4372  10.8418  10.8546
    10.9361  10.9600  11.4974  11.5069

          k = 0.3167 0.0000 0.0000 (  9317 PWs)   bands (ev):

   -61.8011 -61.8011 -37.6131 -37.6065 -35.1682 -35.1662 -35.0799 -35.0725
   -14.0726 -14.0592 -13.3386 -13.3374  -5.8689  -5.8478  -4.7816  -4.7746
    -4.5069  -4.4768  -4.0773  -4.0485  -2.9294  -2.8598  -1.9975  -1.9624
    -1.7449  -1.6821   0.9475   1.0129   1.4849   1.5028   1.6452   1.7047
     3.1087   3.1517   5.4736   5.4762   5.7314   5.7321   6.2283   6.2343
     7.2322   7.2325   7.9342   7.9574   8.2832   8.3208   8.7149   8.7152
     8.8967   8.9225   9.7634   9.7652  10.4211  10.4435  10.8469  10.8880
    10.9686  10.9785  11.4869  11.4973

          k = 0.3333 0.0000 0.0000 (  9323 PWs)   bands (ev):

   -61.7994 -61.7994 -37.6185 -37.6110 -35.1760 -35.1725 -35.0852 -35.0779
   -13.9876 -13.9721 -13.3027 -13.3013  -5.8791  -5.8567  -4.7841  -4.7748
    -4.6283  -4.5984  -4.1491  -4.1199  -2.9547  -2.8806  -2.0322  -1.9982
    -1.7784  -1.7068   0.9325   1.0041   1.4982   1.5173   1.6913   1.7476
     3.1825   3.2220   5.6226   5.6259   5.8770   5.8779   6.3654   6.3724
     7.3585   7.3587   7.8994   7.9214   8.3295   8.3658   8.6631   8.6633
     9.0675   9.0855   9.8219   9.8241  10.4455  10.4718  10.7018  10.7527
    11.0895  11.0994  11.4559  11.4684

          k = 0.3500 0.0000 0.0000 (  9319 PWs)   bands (ev):

   -61.7977 -61.7977 -37.6240 -37.6155 -35.1841 -35.1788 -35.0899 -35.0831
   -13.9021 -13.8843 -13.2665 -13.2649  -5.8999  -5.8773  -4.7732  -4.7651
    -4.7565  -4.7256  -4.2026  -4.1744  -2.9995  -2.9228  -2.0718  -2.0397
    -1.7968  -1.7175   0.9309   1.0074   1.5153   1.5344   1.7411   1.7936
     3.2500   3.2852   5.7771   5.7812   6.0282   6.0292   6.5069   6.5152
     7.4872   7.4872   7.8115   7.8309   8.4187   8.4496   8.6287   8.6296
     9.2193   9.2253   9.8808   9.8832  10.4740  10.5189  10.5506  10.5820
    11.2124  11.2234  11.4391  11.4425

          k = 0.3667 0.0000 0.0000 (  9313 PWs)   bands (ev):

   -61.7960 -61.7960 -37.6293 -37.6199 -35.1923 -35.1850 -35.0943 -35.0881
   -13.8169 -13.7966 -13.2303 -13.2285  -5.9278  -5.9059  -4.8915  -4.8683
    -4.7496  -4.7353  -4.2409  -4.2142  -3.0621  -2.9848  -2.1163  -2.0866
    -1.8011  -1.7157   0.9437   1.0235   1.5346   1.5524   1.7931   1.8413
     3.3109   3.3411   5.9361   5.9414   6.1846   6.1857   6.6517   6.6617
     7.6168   7.6171   7.7000   7.7205   8.5175   8.5433   8.6147   8.6164
     9.3263   9.3401   9.9427   9.9447  10.3535  10.3926  10.5918  10.6126
    11.3285  11.3440  11.4373  11.4525

          k = 0.3833 0.0000 0.0000 (  9321 PWs)   bands (ev):

   -61.7944 -61.7944 -37.6346 -37.6241 -35.2005 -35.1911 -35.0983 -35.0928
   -13.7324 -13.7095 -13.1942 -13.1923  -5.9590  -5.9387  -5.0267  -5.0053
    -4.7209  -4.7069  -4.2667  -4.2415  -3.1395  -3.0632  -2.1655  -2.1384
    -1.7935  -1.7034   0.9709   1.0518   1.5553   1.5700   1.8464   1.8896
     3.3655   3.3898   6.0979   6.1049   6.3458   6.3470   6.7980   6.8103
     7.5805   7.6057   7.7465   7.7471   8.6032   8.6124   8.6309   8.6378
     9.3783   9.4184  10.0096  10.0106  10.2447  10.2531  10.6966  10.7187
    11.4097  11.4339  11.4486  11.4738

          k = 0.4000 0.0000 0.0000 (  9311 PWs)   bands (ev):

   -61.7929 -61.7929 -37.6397 -37.6281 -35.2085 -35.1968 -35.1021 -35.0975
   -13.6494 -13.6237 -13.1586 -13.1564  -5.9902  -5.9722  -5.1610  -5.1417
    -4.6895  -4.6758  -4.2818  -4.2578  -3.2289  -3.1545  -2.2193  -2.1947
    -1.7762  -1.6825   1.0112   1.0903   1.5775   1.5861   1.8995   1.9372
     3.4144   3.4319   6.2597   6.2692   6.5111   6.5123   6.9409   6.9563
     7.4650   7.4987   7.8747   7.8759   8.6445   8.6489   8.6852   8.6909
     9.3934   9.4526  10.0827  10.0831  10.1760  10.1986  10.8241  10.8463
    11.4453  11.4666  11.4717  11.4988

          k = 0.4167 0.0000 0.0000 (  9307 PWs)   bands (ev):

   -61.7914 -61.7914 -37.6445 -37.6320 -35.2162 -35.2021 -35.1057 -35.1020
   -13.5684 -13.5399 -13.1237 -13.1212  -6.0186  -6.0035  -5.2924  -5.2751
    -4.6586  -4.6456  -4.2874  -4.2644  -3.3274  -3.2554  -2.2772  -2.2552
    -1.7509  -1.6543   1.0620   1.1349   1.6009   1.6026   1.9511   1.9825
     3.4584   3.4683   6.4152   6.4288   6.6800   6.6812   7.0656   7.0830
     7.3770   7.4213   8.0005   8.0023   8.6736   8.6969   8.7179   8.7185
     9.4150   9.4703  10.1613  10.1637  10.1643  10.2053  10.9633  10.9857
    11.4604  11.4788  11.5024  11.5337

          k = 0.4333 0.0000 0.0000 (  9295 PWs)   bands (ev):

   -61.7900 -61.7900 -37.6492 -37.6356 -35.2235 -35.2069 -35.1091 -35.1065
   -13.4902 -13.4586 -13.0897 -13.0870  -6.0419  -6.0301  -5.4196  -5.4039
    -4.6305  -4.6184  -4.2844  -4.2622  -3.4328  -3.3635  -2.3389  -2.3193
    -1.7186  -1.6194   1.1182   1.1787   1.6162   1.6344   1.9998   2.0243
     3.4987   3.5002   6.5512   6.5707   6.8517   6.8528   7.1306   7.1333
     7.3871   7.4242   8.1238   8.1260   8.6287   8.6743   8.7903   8.7915
     9.4776   9.5137  10.1939  10.2431  10.2486  10.2509  11.0998  11.1230
    11.4654  11.4808  11.5538  11.5894

          k = 0.4500 0.0000 0.0000 (  9295 PWs)   bands (ev):

   -61.7886 -61.7886 -37.6536 -37.6389 -35.2304 -35.2112 -35.1125 -35.1109
   -13.4153 -13.3806 -13.0568 -13.0539  -6.0583  -6.0502  -5.5413  -5.5271
    -4.6069  -4.5960  -4.2735  -4.2519  -3.5431  -3.4766  -2.4037  -2.3867
    -1.6798  -1.5781   1.1718   1.2129   1.6368   1.6787   2.0443   2.0612
     3.5290   3.5366   6.6396   6.6637   7.0248   7.0259   7.1199   7.1528
     7.4995   7.5209   8.2456   8.2481   8.5513   8.6081   8.8941   8.8971
     9.5796   9.5972  10.2459  10.2961  10.3410  10.3432  11.2175  11.2401
    11.4646  11.4771  11.6388  11.6773

          k = 0.4667 0.0000 0.0000 (  9305 PWs)   bands (ev):

   -61.7874 -61.7874 -37.6577 -37.6420 -35.2368 -35.2149 -35.1157 -35.1153
   -13.3443 -13.3065 -13.0254 -13.0223  -6.0663  -6.0622  -5.6567  -5.6437
    -4.5889  -4.5795  -4.2553  -4.2343  -3.6566  -3.5933  -2.4711  -2.4566
    -1.6348  -1.5306   1.2116   1.2292   1.6703   1.7407   2.0834   2.0920
     3.5562   3.5733   6.6525   6.6694   7.1556   7.1973   7.2008   7.2050
     7.6328   7.6496   8.3686   8.3712   8.4875   8.5421   9.0210   9.0249
     9.7066   9.7109  10.3079  10.3564  10.4365  10.4378  11.3058  11.3245
    11.4602  11.4696  11.7658  11.8034

          k = 0.4833 0.0000 0.0000 (  9299 PWs)   bands (ev):

   -61.7863 -61.7863 -37.6615 -37.6448 -35.2425 -35.2179 -35.1197 -35.1188
   -13.2779 -13.2370 -12.9957 -12.9924  -6.0650  -6.0649  -5.7648  -5.7530
    -4.5774  -4.5694  -4.2306  -4.2103  -3.7716  -3.7120  -2.5404  -2.5286
    -1.5837  -1.4769   1.2239   1.2275   1.7242   1.8212   2.1159   2.1160
     3.5832   3.6100   6.6055   6.6077   7.2280   7.2797   7.3722   7.3731
     7.7631   7.7801   8.4730   8.4961   8.4989   8.5147   9.1671   9.1715
     9.8424   9.8474  10.3755  10.4206  10.5298  10.5301  11.3679  11.3812
    11.4537  11.4590  11.9255  11.9602

          k = 0.5000 0.0000 0.0000 (  9295 PWs)   bands (ev):

   -61.7852 -61.7852 -37.6650 -37.6473 -35.2476 -35.2204 -35.1241 -35.1218
   -13.2165 -13.1725 -12.9678 -12.9644  -6.0577  -6.0533  -5.8650  -5.8541
    -4.5730  -4.5661  -4.2001  -4.1813  -3.8860  -3.8315  -2.6110  -2.6018
    -1.5272  -1.4175   1.1984   1.2159   1.7990   1.9164   2.1325   2.1416
     3.6111   3.6475   6.5219   6.5332   7.2726   7.3331   7.5419   7.5434
     7.8974   7.9131   8.5289   8.5525   8.6316   8.6336   9.3284   9.3332
     9.9831   9.9950  10.4472  10.4879  10.6121  10.6146  11.4116  11.4189
    11.4445  11.4458  12.0665  12.0798

          k = 0.5167 0.0000 0.0000 (  9273 PWs)   bands (ev):

   -61.7843 -61.7843 -37.6681 -37.6495 -35.2521 -35.2221 -35.1284 -35.1247
   -13.1607 -13.1137 -12.9422 -12.9385  -6.0396  -6.0308  -5.9566  -5.9465
    -4.5763  -4.5700  -4.1650  -4.1514  -3.9945  -3.9500  -2.6819  -2.6756
    -1.4663  -1.3533   1.1564   1.1807   1.8883   2.0208   2.1417   2.1606
     3.6407   3.6863   6.4327   6.4557   7.2628   7.3315   7.7069   7.7091
     8.0529   8.0641   8.6485   8.6574   8.7770   8.7782   9.5017   9.5068
    10.1267  10.1437  10.5226  10.5584  10.6761  10.6810  11.4141  11.4242
    11.4430  11.4522  11.9577  11.9629

          k = 0.5333 0.0000 0.0000 (  9273 PWs)   bands (ev):

   -61.7834 -61.7834 -37.6709 -37.6514 -35.2560 -35.2233 -35.1327 -35.1275
   -13.1106 -13.0608 -12.9188 -12.9150  -6.0397  -6.0307  -6.0100  -5.9962
    -4.5888  -4.5816  -4.1538  -4.1290  -4.0624  -4.0620  -2.7524  -2.7492
    -1.4022  -1.2855   1.1020   1.1282   1.9829   2.1281   2.1447   2.1747
     3.6721   3.7259   6.3491   6.3824   7.2089   7.2807   7.8651   7.8683
     8.2327   8.2387   8.8111   8.8115   8.9335   8.9339   9.6835   9.6890
    10.2680  10.2882  10.6011  10.6317  10.7150  10.7209  11.3652  11.3792
    11.4615  11.4684  11.9042  11.9079

          k = 0.5500 0.0000 0.0000 (  9263 PWs)   bands (ev):

   -61.7827 -61.7827 -37.6733 -37.6530 -35.2592 -35.2239 -35.1369 -35.1301
   -13.0667 -13.0143 -12.8980 -12.8941  -6.1128  -6.1043  -5.9696  -5.9516
    -4.6129  -4.6024  -4.2338  -4.1825  -4.0768  -4.0406  -2.8213  -2.8212
    -1.3366  -1.2159   1.0394   1.0643   2.0699   2.1403   2.1910   2.2357
     3.7048   3.7660   6.2760   6.3190   7.1307   7.2008   8.0146   8.0186
     8.4286   8.4296   8.9958   9.0017   9.1005   9.1009   9.8699   9.8761
    10.4024  10.4230  10.6789  10.7023  10.7303  10.7317  11.2890  11.3029
    11.4703  11.4768  11.9200  11.9252

          k = 0.5667 0.0000 0.0000 (  9245 PWs)   bands (ev):

   -61.7820 -61.7820 -37.6753 -37.6543 -35.2618 -35.2239 -35.1409 -35.1325
   -13.0291 -12.9744 -12.8798 -12.8759  -6.1765  -6.1684  -5.9181  -5.8959
    -4.6528  -4.6351  -4.3186  -4.2811  -4.0342  -3.9981  -2.8910  -2.8873
    -1.2718  -1.1464   0.9727   0.9941   2.1222   2.1321   2.2322   2.3366
     3.7380   3.8054   6.2169   6.2692   7.0418   7.1071   8.1530   8.1580
     8.6271   8.6311   9.2010   9.2096   9.2762   9.2774  10.0549  10.0626
    10.5254  10.5430  10.7125  10.7175  10.7489  10.7778  11.2037  11.2142
    11.4730  11.4794  11.8871  11.8890

          k = 0.5833 0.0000 0.0000 (  9249 PWs)   bands (ev):

   -61.7815 -61.7815 -37.6770 -37.6554 -35.2639 -35.2235 -35.1447 -35.1347
   -12.9978 -12.9411 -12.8644 -12.8605  -6.2302  -6.2226  -5.8564  -5.8302
    -4.7121  -4.6836  -4.3866  -4.3649  -3.9901  -3.9524  -2.9565  -2.9489
    -1.2104  -1.0799   0.9060   0.9227   2.1206   2.1334   2.3020   2.4280
     3.7702   3.8428   6.1744   6.2360   6.9499   7.0082   8.2777   8.2835
     8.8219   8.8315   9.4210   9.4302   9.4573   9.4589  10.2285  10.2388
    10.6288  10.6408  10.6911  10.6938  10.8020  10.8271  11.1320  11.1376
    11.4681  11.4722  11.7001  11.7028

          k = 0.6000 0.0000 0.0000 (  9246 PWs)   bands (ev):

   -61.7811 -61.7811 -37.6784 -37.6562 -35.2654 -35.2227 -35.1482 -35.1366
   -12.9728 -12.9144 -12.8518 -12.8479  -6.2739  -6.2666  -5.7863  -5.7565
    -4.7889  -4.7496  -4.4351  -4.4283  -3.9480  -3.9077  -3.0161  -3.0043
    -1.1550  -1.0194   0.8437   0.8551   2.1077   2.1296   2.3722   2.5065
     3.8001   3.8768   6.1502   6.2217   6.8591   6.9088   8.3856   8.3921
     9.0046   9.0199   9.6363   9.6381   9.6531   9.6618  10.3731  10.3874
    10.6570  10.6648  10.6959  10.7098  10.8496  10.8627  11.0979  11.0995
    11.4229  11.4249  11.5332  11.5371

          k = 0.6167 0.0000 0.0000 (  9252 PWs)   bands (ev):

   -61.7808 -61.7808 -37.6794 -37.6569 -35.2664 -35.2217 -35.1512 -35.1382
   -12.9539 -12.8942 -12.8422 -12.8383  -6.3076  -6.3006  -5.7111  -5.6783
    -4.8746  -4.8274  -4.4725  -4.4682  -3.9108  -3.8672  -3.0671  -3.0511
    -1.1085  -0.9680   0.7902   0.7961   2.0948   2.1217   2.4309   2.5693
     3.8260   3.9056   6.1448   6.2274   6.7731   6.8122   8.4731   8.4802
     9.1642   9.1849   9.8039   9.8046   9.8935   9.9002  10.4724  10.4903
    10.6314  10.6421  10.6968  10.7146  10.8997  10.9037  11.1256  11.1258
    11.3179  11.3223  11.3976  11.4044

          k = 0.6333 0.0000 0.0000 (  9244 PWs)   bands (ev):

   -61.7806 -61.7806 -37.6802 -37.6573 -35.2671 -35.2208 -35.1535 -35.1394
   -12.9409 -12.8802 -12.8354 -12.8315  -6.3314  -6.3245  -5.6372  -5.6023
    -4.9574  -4.9052  -4.5021  -4.4907  -3.8813  -3.8345  -3.1067  -3.0868
    -1.0737  -0.9290   0.7490   0.7504   2.0838   2.1135   2.4740   2.6146
     3.8462   3.9279   6.1556   6.2514   6.6964   6.7226   8.5368   8.5442
     9.2886   9.3136   9.9405   9.9426  10.1371  10.1411  10.5337  10.5510
    10.6107  10.6165  10.6662  10.6831  10.9089  10.9185  11.2011  11.2028
    11.2105  11.2121  11.3062  11.3109

          k = 0.6500 0.0000 0.0000 (  9236 PWs)   bands (ev):

   -61.7805 -61.7805 -37.6806 -37.6575 -35.2674 -35.2201 -35.1551 -35.1402
   -12.9334 -12.8721 -12.8314 -12.8276  -6.3454  -6.3386  -5.5775  -5.5419
    -5.0218  -4.9661  -4.5204  -4.5047  -3.8624  -3.8132  -3.1317  -3.1090
    -1.0523  -0.9049   0.7216   0.7234   2.0761   2.1072   2.4998   2.6416
     3.8592   3.9422   6.1750   6.2854   6.6377   6.6493   8.5746   8.5822
     9.3667   9.3940  10.0273  10.0330  10.3601  10.3633  10.5575  10.5617
    10.6182  10.6309  10.6360  10.6449  10.8627  10.8647  11.1085  11.1185
    11.2614  11.2617  11.2766  11.2854

          k = 0.6667 0.0000 0.0000 (  9234 PWs)   bands (ev):

   -61.7804 -61.7804 -37.6807 -37.6575 -35.2675 -35.2198 -35.1556 -35.1405
   -12.9310 -12.8695 -12.8301 -12.8263  -6.3500  -6.3432  -5.5531  -5.5175
    -5.0472  -4.9899  -4.5272  -4.5100  -3.8560  -3.8059  -3.1401  -3.1164
    -1.0453  -0.8968   0.7118   0.7147   2.0732   2.1048   2.5083   2.6504
     3.8638   3.9471   6.1862   6.3053   6.6136   6.6165   8.5867   8.5943
     9.3926   9.4204  10.0555  10.0629  10.4609  10.4696  10.5595  10.5604
    10.6319  10.6345  10.6383  10.6512  10.8199  10.8233  11.0549  11.0712
    11.2696  11.2714  11.2716  11.2881

          k = 0.6583 0.0144 0.0000 (  9246 PWs)   bands (ev):

   -61.7805 -61.7805 -37.6806 -37.6575 -35.2674 -35.2201 -35.1551 -35.1402
   -12.9332 -12.8720 -12.8313 -12.8275  -6.3455  -6.3388  -5.5781  -5.5423
    -5.0230  -4.9681  -4.5182  -4.5030  -3.8621  -3.8129  -3.1322  -3.1095
    -1.0519  -0.9044   0.7213   0.7231   2.0765   2.1076   2.5003   2.6421
     3.8589   3.9419   6.1702   6.2793   6.6420   6.6549   8.5760   8.5835
     9.3692   9.3968  10.0324  10.0385  10.4054  10.4089  10.5230  10.5310
    10.5898  10.5918  10.6451  10.6541  10.8329  10.8432  11.1109  11.1126
    11.2633  11.2640  11.3070  11.3117

          k = 0.6500 0.0289 0.0000 (  9242 PWs)   bands (ev):

   -61.7806 -61.7806 -37.6802 -37.6573 -35.2673 -35.2211 -35.1533 -35.1393
   -12.9395 -12.8788 -12.8349 -12.8311  -6.3327  -6.3258  -5.6416  -5.6055
    -4.9678  -4.9210  -4.4839  -4.4767  -3.8789  -3.8319  -3.1107  -3.0906
    -1.0701  -0.9252   0.7468   0.7481   2.0872   2.1170   2.4776   2.6186
     3.8439   3.9258   6.1245   6.2156   6.7237   6.7547   8.5472   8.5547
     9.3065   9.3339   9.9756   9.9792  10.2988  10.2991  10.3965  10.4082
    10.4907  10.4944  10.6983  10.6995  10.8322  10.8527  11.0795  11.0947
    11.2197  11.2217  11.5047  11.5085

          k = 0.6417 0.0433 0.0000 (  9248 PWs)   bands (ev):

   -61.7808 -61.7808 -37.6796 -37.6571 -35.2672 -35.2229 -35.1504 -35.1378
   -12.9493 -12.8896 -12.8406 -12.8368  -6.3120  -6.3050  -5.7249  -5.6890
    -4.9109  -4.8780  -4.4210  -4.4137  -3.9037  -3.8594  -3.0797  -3.0630
    -1.0973  -0.9559   0.7834   0.7892   2.1062   2.1338   2.4426   2.5821
     3.8185   3.8985   6.0607   6.1369   6.8450   6.8909   8.5057   8.5131
     9.2161   9.2439   9.8995   9.9003  10.1765  10.1784  10.2206  10.2309
    10.3756  10.3795  10.7442  10.7450  10.8296  10.8519  10.9780  10.9893
    11.1559  11.1622  11.6401  11.6406

          k = 0.6333 0.0577 0.0000 (  9258 PWs)   bands (ev):

   -61.7810 -61.7810 -37.6789 -37.6568 -35.2671 -35.2252 -35.1466 -35.1358
   -12.9621 -12.9037 -12.8481 -12.8443  -6.2844  -6.2772  -5.8163  -5.7811
    -4.8714  -4.8539  -4.3294  -4.3050  -3.9332  -3.8914  -3.0433  -3.0304
    -1.1303  -0.9931   0.8295   0.8409   2.1345   2.1580   2.3984   2.5350
     3.7827   3.8603   5.9885   6.0537   6.9936   7.0506   8.4564   8.4635
     9.1074   9.1363   9.8062   9.8090  10.0216  10.0298  10.0536  10.0554
    10.2551  10.2595  10.7374  10.7398  10.8110  10.8119  10.8520  10.8660
    11.1219  11.1320  11.5806  11.5951

          k = 0.6250 0.0722 0.0000 (  9250 PWs)   bands (ev):

   -61.7813 -61.7813 -37.6780 -37.6565 -35.2671 -35.2279 -35.1421 -35.1331
   -12.9771 -12.9205 -12.8572 -12.8534  -6.2507  -6.2432  -5.9098  -5.8759
    -4.8525  -4.8470  -4.2062  -4.1661  -3.9649  -3.9241  -3.0050  -2.9958
    -1.1662  -1.0333   0.8819   0.8994   2.1725   2.1874   2.3502   2.4799
     3.7373   3.8117   5.9132   5.9699   7.1616   7.2274   8.4030   8.4098
     8.9868   9.0175   9.6781   9.6876   9.8363   9.8380   9.9322   9.9344
    10.1341  10.1390  10.6594  10.6700  10.6731  10.6761  10.7946  10.8179
    11.1151  11.1247  11.4649  11.4798

          k = 0.6167 0.0866 0.0000 (  9250 PWs)   bands (ev):

   -61.7816 -61.7816 -37.6769 -37.6562 -35.2673 -35.2310 -35.1370 -35.1299
   -12.9940 -12.9394 -12.8676 -12.8639  -6.2120  -6.2041  -6.0023  -5.9701
    -4.8513  -4.8488  -4.0677  -4.0084  -3.9952  -3.9479  -2.9674  -2.9617
    -1.2029  -1.0742   0.9377   0.9617   2.2076   2.2203   2.3153   2.4193
     3.6830   3.7537   5.8375   5.8875   7.3435   7.4165   8.3485   8.3549
     8.8584   8.8916   9.4807   9.4937   9.7069   9.7084   9.8148   9.8173
    10.0142  10.0197  10.4789  10.4873  10.5803  10.5814  10.7480  10.7658
    11.0957  11.1023  11.3694  11.3843

          k = 0.6083 0.1010 0.0000 (  9240 PWs)   bands (ev):

   -61.7819 -61.7819 -37.6757 -37.6559 -35.2675 -35.2343 -35.1315 -35.1262
   -13.0121 -12.9600 -12.8788 -12.8753  -6.1702  -6.1611  -6.0911  -6.0618
    -4.8621  -4.8547  -4.0271  -4.0126  -3.8708  -3.8345  -2.9324  -2.9298
    -1.2386  -1.1136   0.9943   1.0248   2.1812   2.2750   2.3333   2.3584
     3.6213   3.6876   5.7629   5.8075   7.5342   7.6137   8.2948   8.3008
     8.7250   8.7616   9.2440   9.2569   9.6139   9.6149   9.7014   9.7041
     9.8957   9.9018  10.2930  10.2996  10.4819  10.4823  10.6890  10.7028
    11.0553  11.0594  11.2890  11.3038

          k = 0.6000 0.1155 0.0000 (  9258 PWs)   bands (ev):

   -61.7823 -61.7823 -37.6745 -37.6556 -35.2679 -35.2377 -35.1258 -35.1222
   -13.0309 -12.9815 -12.8908 -12.8873  -6.1823  -6.1511  -6.1194  -6.1139
    -4.8768  -4.8664  -4.0544  -4.0341  -3.7043  -3.6542  -2.9016  -2.9012
    -1.2722  -1.1507   1.0493   1.0863   2.1244   2.2761   2.3594   2.3898
     3.5537   3.6150   5.6904   5.7303   7.7276   7.8133   8.2432   8.2488
     8.5900   8.6306   8.9961   9.0085   9.5331   9.5333   9.5910   9.5939
     9.7783   9.7848  10.1170  10.1225  10.3861  10.3861  10.6229  10.6340
    11.0035  11.0059  11.2177  11.2324

          k = 0.5917 0.1299 0.0000 (  9254 PWs)   bands (ev):

   -61.7826 -61.7826 -37.6732 -37.6554 -35.2683 -35.2411 -35.1201 -35.1179
   -13.0499 -13.0035 -12.9030 -12.8997  -6.2620  -6.2341  -6.0735  -6.0668
    -4.8935  -4.8816  -4.0780  -4.0581  -3.5258  -3.4692  -2.8777  -2.8748
    -1.3033  -1.1849   1.1008   1.1441   2.0611   2.2134   2.4338   2.4623
     3.4822   3.5378   5.6206   5.6564   7.9113   8.0017   8.1942   8.1996
     8.4635   8.5068   8.7468   8.7589   9.4586   9.4592   9.4821   9.4850
     9.6634   9.6697   9.9629   9.9673  10.2960  10.2964  10.5548  10.5641
    10.9477  10.9492  11.1513  11.1659

          k = 0.5833 0.1443 0.0000 (  9258 PWs)   bands (ev):

   -61.7830 -61.7830 -37.6718 -37.6553 -35.2688 -35.2445 -35.1144 -35.1134
   -13.0686 -13.0256 -12.9152 -12.9122  -6.3380  -6.3125  -6.0256  -6.0187
    -4.9113  -4.8986  -4.0974  -4.0789  -3.3438  -3.2825  -2.8584  -2.8533
    -1.3319  -1.2163   1.1472   1.1964   1.9981   2.1486   2.5208   2.5451
     3.4088   3.4580   5.5539   5.5861   8.0447   8.1162   8.1476   8.1537
     8.3992   8.4191   8.5089   8.5189   9.3721   9.3765   9.3916   9.3918
     9.5556   9.5612   9.8363   9.8394  10.2133  10.2139  10.4879  10.4963
    10.8924  10.8931  11.0880  11.1026

          k = 0.5750 0.1588 0.0000 (  9262 PWs)   bands (ev):

   -61.7833 -61.7833 -37.6704 -37.6552 -35.2693 -35.2478 -35.1090 -35.1089
   -13.0867 -13.0472 -12.9272 -12.9244  -6.4082  -6.3851  -5.9783  -5.9715
    -4.9292  -4.9166  -4.1121  -4.0953  -3.1623  -3.0969  -2.8435  -2.8363
    -1.3586  -1.2456   1.1872   1.2414   1.9389   2.0866   2.6157   2.6353
     3.3359   3.3777   5.4908   5.5197   8.0400   8.0518   8.1011   8.1029
     8.2563   8.2675   8.4877   8.5234   9.2697   9.2742   9.3291   9.3295
     9.4607   9.4655   9.7362   9.7379  10.1386  10.1392  10.4247  10.4326
    10.8396  10.8399  11.0269  11.0418

          k = 0.5667 0.1732 0.0000 (  9252 PWs)   bands (ev):

   -61.7837 -61.7837 -37.6690 -37.6552 -35.2698 -35.2509 -35.1045 -35.1039
   -13.1036 -13.0680 -12.9387 -12.9361  -6.4721  -6.4514  -5.9329  -5.9264
    -4.9468  -4.9347  -4.1220  -4.1072  -2.9868  -2.9194  -2.8281  -2.8208
    -1.3842  -1.2738   1.2197   1.2774   1.8861   2.0292   2.7163   2.7299
     3.2663   3.2992   5.4316   5.4575   7.9143   7.9293   7.9895   8.0055
     8.0998   8.1026   8.6171   8.6741   9.1867   9.1939   9.2728   9.2734
     9.3814   9.3854   9.6598   9.6606  10.0719  10.0726  10.3663  10.3742
    10.7906  10.7907  10.9679  10.9834

          k = 0.5583 0.1876 0.0000 (  9258 PWs)   bands (ev):

   -61.7840 -61.7840 -37.6676 -37.6554 -35.2701 -35.2539 -35.1002 -35.0992
   -13.1191 -13.0875 -12.9494 -12.9471  -6.5292  -6.5110  -5.8905  -5.8844
    -4.9634  -4.9522  -4.1275  -4.1146  -2.8556  -2.8402  -2.7705  -2.7237
    -1.4098  -1.3021   1.2442   1.3030   1.8423   1.9779   2.8197   2.8245
     3.2037   3.2247   5.3767   5.3996   7.7523   7.7628   7.8156   7.8208
     8.0504   8.0540   8.7246   8.7771   9.1494   9.1671   9.2229   9.2236
     9.3195   9.3222   9.6084   9.6101  10.0133  10.0141  10.3138  10.3221
    10.7462  10.7463  10.9109  10.9273

          k = 0.5500 0.2021 0.0000 (  9264 PWs)   bands (ev):

   -61.7843 -61.7843 -37.6662 -37.6556 -35.2704 -35.2566 -35.0962 -35.0949
   -13.1329 -13.1055 -12.9591 -12.9570  -6.5793  -6.5635  -5.8522  -5.8466
    -4.9786  -4.9685  -4.1289  -4.1180  -2.8349  -2.8330  -2.6226  -2.5565
    -1.4369  -1.3323   1.2608   1.3173   1.8094   1.9336   2.9101   2.9215
     3.1558   3.1576   5.3267   5.3467   7.5646   7.5664   7.6663   7.6763
     8.0192   8.0220   8.7565   8.7906   9.1655   9.1792   9.1795   9.1900
     9.2848   9.2910   9.5934   9.6017   9.9628   9.9636  10.2678  10.2769
    10.7070  10.7072  10.8556  10.8731

          k = 0.5417 0.2165 0.0000 (  9258 PWs)   bands (ev):

   -61.7845 -61.7845 -37.6649 -37.6559 -35.2705 -35.2591 -35.0926 -35.0913
   -13.1446 -13.1215 -12.9676 -12.9659  -6.6219  -6.6087  -5.8185  -5.8137
    -4.9920  -4.9833  -4.1272  -4.1181  -2.8355  -2.8313  -2.4663  -2.3962
    -1.4668  -1.3658   1.2702   1.3209   1.7881   1.8966   2.9644   3.0082
     3.1093   3.1429   5.2823   5.2994   7.3789   7.3840   7.5379   7.5515
     7.9941   7.9963   8.7337   8.7549   9.1419   9.1425   9.1663   9.1754
     9.2887   9.3058   9.6372   9.6620   9.9204   9.9213  10.2289  10.2392
    10.6733  10.6736  10.8016  10.8203

          k = 0.5333 0.2309 0.0000 (  9254 PWs)   bands (ev):

   -61.7847 -61.7847 -37.6636 -37.6564 -35.2704 -35.2614 -35.0895 -35.0883
   -13.1541 -13.1355 -12.9747 -12.9733  -6.6569  -6.6463  -5.7903  -5.7863
    -5.0032  -4.9961  -4.1233  -4.1161  -2.8383  -2.8338  -2.3197  -2.2482
    -1.5003  -1.4042   1.2742   1.3161   1.7772   1.8665   2.9667   3.0152
     3.1417   3.1827   5.2444   5.2583   7.2158   7.2215   7.4298   7.4431
     7.9739   7.9756   8.6965   8.7105   9.1114   9.1119   9.1410   9.1446
     9.2946   9.3069   9.7395   9.7800   9.8865   9.8875  10.1979  10.2099
    10.6455  10.6458  10.7480  10.7679

          k = 0.5250 0.2454 0.0000 (  9254 PWs)   bands (ev):

   -61.7849 -61.7849 -37.6624 -37.6569 -35.2702 -35.2635 -35.0870 -35.0859
   -13.1611 -13.1471 -12.9804 -12.9793  -6.6840  -6.6760  -5.7679  -5.7648
    -5.0121  -5.0066  -4.1183  -4.1130  -2.8419  -2.8380  -2.1871  -2.1170
    -1.5370  -1.4485   1.2748   1.3064   1.7747   1.8425   2.9462   2.9786
     3.2151   3.2424   5.2139   5.2245   7.0813   7.0864   7.3436   7.3547
     7.9583   7.9596   8.6620   8.6714   9.0876   9.0880   9.1157   9.1174
     9.2876   9.2950   9.8454   9.8556   9.8800   9.9165  10.1768  10.1911
    10.6237  10.6239  10.6947  10.7152

          k = 0.5167 0.2598 0.0000 (  9250 PWs)   bands (ev):

   -61.7850 -61.7850 -37.6613 -37.6576 -35.2697 -35.2652 -35.0851 -35.0843
   -13.1656 -13.1562 -12.9845 -12.9838  -6.7031  -6.6978  -5.7516  -5.7495
    -5.0183  -5.0146  -4.1135  -4.1100  -2.8451  -2.8422  -2.0725  -2.0097
    -1.5733  -1.4981   1.2743   1.2952   1.7780   1.8234   2.9267   2.9468
     3.2773   3.2942   5.1917   5.1989   6.9806   6.9844   7.2811   7.2890
     7.9473   7.9481   8.6359   8.6419   9.0705   9.0708   9.0964   9.0973
     9.2776   9.2819   9.8374   9.8382   9.9810  10.0244  10.1730  10.1873
    10.6081  10.6082  10.6434  10.6626

          k = 0.5083 0.2742 0.0000 (  9260 PWs)   bands (ev):

   -61.7851 -61.7851 -37.6602 -37.6584 -35.2690 -35.2667 -35.0838 -35.0834
   -13.1673 -13.1626 -12.9869 -12.9865  -6.7140  -6.7114  -5.7416  -5.7405
    -5.0217  -5.0198  -4.1098  -4.1081  -2.8471  -2.8456  -1.9827  -1.9410
    -1.5971  -1.5491   1.2751   1.2854   1.7852   1.8079   2.9153   2.9250
     3.3188   3.3270   5.1787   5.1824   6.9184   6.9205   7.2440   7.2480
     7.9407   7.9411   8.6204   8.6233   9.0603   9.0604   9.0847   9.0851
     9.2706   9.2725   9.8267   9.8269  10.0512  10.0749  10.1997  10.2044
    10.5985  10.5987  10.6025  10.6155

          k = 0.5000 0.2887 0.0000 (  9276 PWs)   bands (ev):

   -61.7852 -61.7852 -37.6592 -37.6592 -35.2680 -35.2680 -35.0833 -35.0833
   -13.1663 -13.1663 -12.9876 -12.9876  -6.7168  -6.7168  -5.7379  -5.7379
    -5.0222  -5.0222  -4.1079  -4.1079  -2.8473  -2.8473  -1.9319  -1.9319
    -1.5889  -1.5889   1.2786   1.2786   1.7953   1.7953   2.9145   2.9145
     3.3358   3.3358   5.1756   5.1756   6.8980   6.8980   7.2329   7.2329
     7.9387   7.9387   8.6161   8.6161   9.0569   9.0569   9.0808   9.0808
     9.2686   9.2686   9.8231   9.8231  10.0773  10.0773  10.2205  10.2205
    10.5898  10.5898  10.5956  10.5956

          k = 0.4833 0.2791 0.0000 (  9272 PWs)   bands (ev):

   -61.7853 -61.7853 -37.6589 -37.6589 -35.2673 -35.2673 -35.0832 -35.0832
   -13.1731 -13.1731 -12.9901 -12.9901  -6.7100  -6.7100  -5.7311  -5.7311
    -5.0188  -5.0188  -4.1047  -4.1047  -2.8449  -2.8449  -1.9359  -1.9359
    -1.5967  -1.5967   1.2769   1.2769   1.7882   1.7882   2.9099   2.9099
     3.3338   3.3338   5.1979   5.1979   6.8928   6.8928   7.2169   7.2169
     7.9249   7.9249   8.5679   8.5679   8.9388   8.9388   9.0242   9.0242
     9.4637   9.4637   9.8388   9.8388  10.0134  10.0134  10.2331  10.2331
    10.6171  10.6171  10.6844  10.6844

          k = 0.4667 0.2694 0.0000 (  9272 PWs)   bands (ev):

   -61.7856 -61.7856 -37.6579 -37.6579 -35.2654 -35.2654 -35.0831 -35.0831
   -13.1932 -13.1932 -12.9976 -12.9976  -6.6898  -6.6898  -5.7109  -5.7109
    -5.0090  -5.0090  -4.0949  -4.0949  -2.8377  -2.8377  -1.9478  -1.9478
    -1.6195  -1.6195   1.2723   1.2723   1.7675   1.7675   2.8961   2.8961
     3.3278   3.3278   5.2638   5.2638   6.8780   6.8780   7.1707   7.1707
     7.8818   7.8818   8.4020   8.4020   8.8389   8.8389   8.9470   8.9470
     9.6859   9.6859   9.8587   9.8587   9.9597   9.9597  10.2717  10.2717
    10.6945  10.6945  10.8806  10.8806

          k = 0.4500 0.2598 0.0000 (  9272 PWs)   bands (ev):

   -61.7861 -61.7861 -37.6563 -37.6563 -35.2623 -35.2623 -35.0828 -35.0828
   -13.2261 -13.2261 -13.0100 -13.0100  -6.6566  -6.6566  -5.6776  -5.6776
    -4.9934  -4.9934  -4.0786  -4.0786  -2.8257  -2.8257  -1.9677  -1.9677
    -1.6552  -1.6552   1.2652   1.2652   1.7351   1.7351   2.8728   2.8728
     3.3177   3.3177   5.3694   5.3694   6.8553   6.8553   7.0987   7.0987
     7.8073   7.8073   8.1684   8.1684   8.7904   8.7904   8.8581   8.8582
     9.6813   9.6813   9.8511   9.8511  10.1729  10.1729  10.3365  10.3365
    10.8391  10.8391  11.0845  11.0845

          k = 0.4333 0.2502 0.0000 (  9268 PWs)   bands (ev):

   -61.7868 -61.7868 -37.6540 -37.6540 -35.2579 -35.2579 -35.0825 -35.0825
   -13.2711 -13.2711 -13.0270 -13.0270  -6.6116  -6.6116  -5.6315  -5.6315
    -4.9732  -4.9732  -4.0559  -4.0559  -2.8087  -2.8087  -1.9955  -1.9955
    -1.7006  -1.7006   1.2566   1.2566   1.6934   1.6934   2.8396   2.8396
     3.3034   3.3034   5.5093   5.5093   6.8258   6.8258   7.0062   7.0062
     7.7048   7.7048   7.9236   7.9236   8.7280   8.7280   8.7714   8.7714
     9.6301   9.6301   9.8242   9.8242  10.4246  10.4246  10.4892  10.4892
    11.0331  11.0331  11.2006  11.2006

          k = 0.4167 0.2406 0.0000 (  9277 PWs)   bands (ev):

   -61.7877 -61.7877 -37.6512 -37.6512 -35.2524 -35.2524 -35.0820 -35.0820
   -13.3271 -13.3271 -13.0483 -13.0483  -6.5557  -6.5557  -5.5733  -5.5733
    -4.9501  -4.9501  -4.0268  -4.0268  -2.7867  -2.7867  -2.0311  -2.0311
    -1.7516  -1.7516   1.2477   1.2477   1.6449   1.6449   2.7963   2.7963
     3.2847   3.2847   5.6762   5.6762   6.7886   6.7886   6.8981   6.8981
     7.5858   7.5858   7.6862   7.6862   8.6367   8.6367   8.6806   8.6806
     9.6116   9.6116   9.8021   9.8021  10.5358  10.5358  10.7973  10.7973
    11.1986  11.1986  11.2381  11.2381

          k = 0.4000 0.2309 0.0000 (  9281 PWs)   bands (ev):

   -61.7888 -61.7888 -37.6478 -37.6478 -35.2458 -35.2458 -35.0814 -35.0814
   -13.3930 -13.3930 -13.0736 -13.0736  -6.4907  -6.4907  -5.5037  -5.5037
    -4.9261  -4.9261  -3.9916  -3.9916  -2.7596  -2.7596  -2.0744  -2.0744
    -1.8035  -1.8035   1.2398   1.2398   1.5923   1.5923   2.7426   2.7426
     3.2614   3.2614   5.8602   5.8602   6.7379   6.7379   6.7809   6.7809
     7.4564   7.4564   7.4745   7.4745   8.5261   8.5261   8.5780   8.5780
     9.6105   9.6105   9.8011   9.8011  10.6653  10.6653  10.9464  10.9464
    11.3259  11.3259  11.3935  11.3935

          k = 0.3833 0.2213 0.0000 (  9281 PWs)   bands (ev):

   -61.7900 -61.7900 -37.6439 -37.6439 -35.2383 -35.2383 -35.0806 -35.0806
   -13.4674 -13.4674 -13.1024 -13.1024  -6.4181  -6.4181  -5.4234  -5.4234
    -4.9034  -4.9034  -3.9502  -3.9502  -2.7272  -2.7272  -2.1248  -2.1248
    -1.8512  -1.8512   1.2341   1.2341   1.5376   1.5376   2.6788   2.6788
     3.2333   3.2333   6.0436   6.0436   6.6567   6.6567   6.6743   6.6743
     7.2537   7.2537   7.3746   7.3746   8.4096   8.4096   8.4626   8.4626
     9.6005   9.6005   9.8244   9.8244  10.8069  10.8069  10.9364  10.9364
    11.4426  11.4426  11.6395  11.6395

          k = 0.3667 0.2117 0.0000 (  9293 PWs)   bands (ev):

   -61.7914 -61.7914 -37.6395 -37.6395 -35.2299 -35.2299 -35.0795 -35.0795
   -13.5490 -13.5490 -13.1343 -13.1343  -6.3402  -6.3402  -5.3336  -5.3336
    -4.8839  -4.8839  -3.9029  -3.9029  -2.6897  -2.6897  -2.1819  -2.1819
    -1.8898  -1.8898   1.2318   1.2318   1.4830   1.4830   2.6052   2.6052
     3.2001   3.2001   6.1739   6.1739   6.5680   6.5681   6.5926   6.5926
     7.0660   7.0660   7.3152   7.3152   8.2976   8.2976   8.3395   8.3395
     9.5622   9.5622   9.8665   9.8665  10.9001  10.9001  10.9947  10.9947
    11.4007  11.4007  11.9468  11.9468

          k = 0.3500 0.2021 0.0000 (  9297 PWs)   bands (ev):

   -61.7930 -61.7930 -37.6348 -37.6348 -35.2207 -35.2207 -35.0782 -35.0782
   -13.6364 -13.6364 -13.1686 -13.1686  -6.2594  -6.2594  -5.2352  -5.2352
    -4.8690  -4.8690  -3.8498  -3.8498  -2.6471  -2.6471  -2.2452  -2.2452
    -1.9147  -1.9147   1.2337   1.2337   1.4302   1.4302   2.5229   2.5229
     3.1616   3.1616   6.1526   6.1526   6.4381   6.4381   6.6516   6.6516
     6.9092   6.9092   7.2927   7.2927   8.1932   8.1932   8.2221   8.2221
     9.4897   9.4897   9.9173   9.9173  10.9334  10.9334  11.1551  11.1551
    11.3199  11.3199  12.0465  12.0465

          k = 0.3333 0.1925 0.0000 (  9303 PWs)   bands (ev):

   -61.7946 -61.7946 -37.6297 -37.6297 -35.2110 -35.2110 -35.0766 -35.0766
   -13.7282 -13.7282 -13.2050 -13.2050  -6.1788  -6.1788  -5.1293  -5.1293
    -4.8587  -4.8587  -3.7913  -3.7913  -2.6000  -2.6000  -2.3137  -2.3137
    -1.9222  -1.9222   1.2396   1.2396   1.3816   1.3816   2.4333   2.4333
     3.1175   3.1175   6.0252   6.0252   6.2879   6.2879   6.6602   6.6602
     6.9091   6.9091   7.2931   7.2931   8.0908   8.0908   8.1343   8.1343
     9.3882   9.3882   9.9645   9.9645  10.9826  10.9826  11.2290  11.2290
    11.3327  11.3327  11.9179  11.9179

          k = 0.3167 0.1828 0.0000 (  9301 PWs)   bands (ev):

   -61.7964 -61.7964 -37.6243 -37.6243 -35.2009 -35.2009 -35.0745 -35.0745
   -13.8231 -13.8231 -13.2430 -13.2430  -6.1024  -6.1024  -5.0175  -5.0175
    -4.8512  -4.8512  -3.7276  -3.7276  -2.5506  -2.5506  -2.3853  -2.3853
    -1.9100  -1.9100   1.2474   1.2474   1.3416   1.3416   2.3379   2.3379
     3.0678   3.0678   5.8675   5.8675   6.1276   6.1276   6.5269   6.5269
     7.0709   7.0709   7.2936   7.2936   8.0119   8.0119   8.0789   8.0789
     9.2662   9.2662   9.9951   9.9951  11.0356  11.0356  11.1579  11.1579
    11.5038  11.5038  11.7225  11.7225

          k = 0.3000 0.1732 0.0000 (  9305 PWs)   bands (ev):

   -61.7982 -61.7982 -37.6187 -37.6187 -35.1907 -35.1907 -35.0719 -35.0719
   -13.9199 -13.9199 -13.2819 -13.2819  -6.0347  -6.0347  -4.9037  -4.9036
    -4.8399  -4.8398  -3.6591  -3.6591  -2.5166  -2.5166  -2.4417  -2.4417
    -1.8778  -1.8778   1.2471   1.2471   1.3217   1.3217   2.2389   2.2390
     3.0122   3.0123   5.7023   5.7023   5.9641   5.9641   6.3809   6.3809
     7.2280   7.2280   7.2680   7.2680   7.9849   7.9849   8.0575   8.0575
     9.1304   9.1304   9.9976   9.9976  11.0655  11.0655  11.1135  11.1135
    11.5288  11.5288  11.6659  11.6659

          k = 0.2833 0.1636 0.0000 (  9311 PWs)   bands (ev):

   -61.8001 -61.8001 -37.6130 -37.6130 -35.1805 -35.1805 -35.0686 -35.0686
   -14.0174 -14.0174 -13.3214 -13.3214  -5.9814  -5.9814  -4.8390  -4.8390
    -4.7689  -4.7688  -3.5860  -3.5860  -2.5672  -2.5672  -2.4135  -2.4135
    -1.8269  -1.8269   1.2301   1.2301   1.3320   1.3320   2.1387   2.1387
     2.9509   2.9509   5.5375   5.5375   5.8017   5.8017   6.2369   6.2369
     7.2025   7.2025   7.3407   7.3407   8.0205   8.0205   8.0789   8.0789
     8.9843   8.9843   9.9669   9.9669  11.0417  11.0417  11.0886  11.0887
    11.3980  11.3980  11.7952  11.7952

          k = 0.2667 0.1540 0.0000 (  9303 PWs)   bands (ev):

   -61.8020 -61.8020 -37.6072 -37.6072 -35.1707 -35.1707 -35.0646 -35.0646
   -14.1146 -14.1146 -13.3609 -13.3609  -5.9477  -5.9477  -4.8100  -4.8099
    -4.6465  -4.6465  -3.5090  -3.5090  -2.6484  -2.6484  -2.3549  -2.3549
    -1.7601  -1.7601   1.2101   1.2101   1.3604   1.3604   2.0397   2.0397
     2.8840   2.8840   5.3767   5.3767   5.6432   5.6432   6.0968   6.0968
     7.1059   7.1059   7.3927   7.3927   8.1025   8.1025   8.1472   8.1472
     8.8315   8.8315   9.9065   9.9065  10.9547  10.9547  11.0642  11.0642
    11.3538  11.3538  11.8681  11.8681

          k = 0.2500 0.1443 0.0000 (  9311 PWs)   bands (ev):

   -61.8040 -61.8040 -37.6013 -37.6013 -35.1615 -35.1615 -35.0597 -35.0597
   -14.2104 -14.2104 -13.4001 -13.4001  -5.9371  -5.9371  -4.7660  -4.7660
    -4.5190  -4.5190  -3.4285  -3.4285  -2.7340  -2.7340  -2.2925  -2.2925
    -1.6813  -1.6813   1.1969   1.1969   1.3982   1.3982   1.9445   1.9445
     2.8116   2.8116   5.2221   5.2221   5.4906   5.4906   5.9615   5.9615
     6.9928   6.9928   7.3893   7.3893   8.1852   8.1852   8.2635   8.2635
     8.6835   8.6835   9.8250   9.8250  10.8501  10.8501  11.0271  11.0271
    11.3506  11.3506  11.8566  11.8566

          k = 0.2333 0.1347 0.0000 (  9317 PWs)   bands (ev):

   -61.8060 -61.8060 -37.5956 -37.5956 -35.1531 -35.1531 -35.0538 -35.0538
   -14.3040 -14.3040 -13.4385 -13.4385  -5.9498  -5.9498  -4.7031  -4.7031
    -4.3893  -4.3892  -3.3452  -3.3452  -2.8203  -2.8203  -2.2307  -2.2307
    -1.5948  -1.5948   1.1944   1.1944   1.4424   1.4424   1.8561   1.8561
     2.7343   2.7343   5.0748   5.0748   5.3450   5.3450   5.8314   5.8314
     6.8738   6.8738   7.3438   7.3438   8.2068   8.2068   8.4122   8.4122
     8.5854   8.5854   9.7319   9.7319  10.7689  10.7689  10.9509  10.9509
    11.3577  11.3577  11.7573  11.7573

          k = 0.2167 0.1251 0.0000 (  9323 PWs)   bands (ev):

   -61.8079 -61.8079 -37.5899 -37.5899 -35.1458 -35.1458 -35.0470 -35.0470
   -14.3945 -14.3945 -13.4758 -13.4758  -5.9829  -5.9829  -4.6222  -4.6222
    -4.2583  -4.2583  -3.2599  -3.2598  -2.9057  -2.9057  -2.1722  -2.1722
    -1.5051  -1.5051   1.2050   1.2050   1.4915   1.4915   1.7773   1.7773
     2.6527   2.6527   4.9358   4.9358   5.2073   5.2073   5.7069   5.7069
     6.7550   6.7550   7.2636   7.2636   8.1117   8.1117   8.5653   8.5653
     8.6039   8.6039   9.6346   9.6346  10.7147  10.7147  10.8287  10.8287
    11.3731  11.3731  11.5955  11.5955

          k = 0.2000 0.1155 0.0000 (  9333 PWs)   bands (ev):

   -61.8098 -61.8098 -37.5845 -37.5845 -35.1395 -35.1395 -35.0393 -35.0393
   -14.4812 -14.4812 -13.5116 -13.5116  -6.0313  -6.0313  -4.5269  -4.5269
    -4.1269  -4.1269  -3.1738  -3.1738  -2.9883  -2.9883  -2.1201  -2.1201
    -1.4165  -1.4165   1.2301   1.2301   1.5439   1.5439   1.7113   1.7113
     2.5676   2.5676   4.8055   4.8055   5.0782   5.0782   5.5885   5.5885
     6.6399   6.6399   7.1499   7.1499   7.9546   7.9546   8.6617   8.6617
     8.7400   8.7400   9.5382   9.5382  10.6744  10.6744  10.6796  10.6797
    11.3997  11.3997  11.4034  11.4034

          k = 0.1833 0.1058 0.0000 (  9317 PWs)   bands (ev):

   -61.8116 -61.8116 -37.5792 -37.5792 -35.1343 -35.1343 -35.0309 -35.0309
   -14.5634 -14.5634 -13.5456 -13.5456  -6.0898  -6.0898  -4.4214  -4.4214
    -3.9953  -3.9953  -3.0990  -3.0990  -3.0560  -3.0560  -2.0772  -2.0772
    -1.3328  -1.3328   1.2704   1.2704   1.5957   1.5957   1.6630   1.6630
     2.4801   2.4801   4.6844   4.6844   4.9581   4.9581   5.4765   5.4765
     6.5305   6.5305   7.0018   7.0018   7.7944   7.7944   8.7555   8.7555
     8.8747   8.8747   9.4453   9.4453  10.5310  10.5310  10.6407  10.6407
    11.1936  11.1936  11.4498  11.4498

          k = 0.1667 0.0962 0.0000 (  9319 PWs)   bands (ev):

   -61.8134 -61.8134 -37.5742 -37.5742 -35.1300 -35.1300 -35.0221 -35.0221
   -14.6404 -14.6404 -13.5775 -13.5775  -6.1538  -6.1538  -4.3101  -4.3101
    -3.8641  -3.8641  -3.1504  -3.1504  -2.9938  -2.9938  -2.0464  -2.0463
    -1.2568  -1.2568   1.3258   1.3258   1.6117   1.6117   1.6686   1.6686
     2.3915   2.3915   4.5726   4.5726   4.8475   4.8475   5.3711   5.3711
     6.4283   6.4283   6.8223   6.8223   7.6521   7.6521   8.8549   8.8550
     8.9627   8.9627   9.3531   9.3531  10.4328  10.4328  10.5986  10.5986
    10.9860  10.9860  11.5138  11.5138

          k = 0.1500 0.0866 0.0000 (  9321 PWs)   bands (ev):

   -61.8150 -61.8150 -37.5696 -37.5696 -35.1265 -35.1265 -35.0131 -35.0131
   -14.7118 -14.7118 -13.6071 -13.6071  -6.2195  -6.2195  -4.1965  -4.1965
    -3.7335  -3.7335  -3.2205  -3.2205  -2.9096  -2.9096  -2.0300  -2.0300
    -1.1903  -1.1903   1.3948   1.3948   1.5984   1.5984   1.7214   1.7214
     2.3032   2.3032   4.4704   4.4704   4.7466   4.7466   5.2723   5.2723
     6.3341   6.3341   6.6208   6.6208   7.5319   7.5319   8.9519   8.9519
     8.9907   8.9907   9.2505   9.2505  10.4229  10.4229  10.5480  10.5480
    10.7857  10.7857  11.5874  11.5874

          k = 0.1333 0.0770 0.0000 (  9337 PWs)   bands (ev):

   -61.8166 -61.8166 -37.5654 -37.5654 -35.1237 -35.1237 -35.0044 -35.0044
   -14.7769 -14.7769 -13.6342 -13.6342  -6.2839  -6.2839  -4.0842  -4.0841
    -3.6040  -3.6040  -3.2855  -3.2855  -2.8275  -2.8275  -2.0297  -2.0297
    -1.1343  -1.1343   1.4741   1.4742   1.5996   1.5997   1.7770   1.7770
     2.2169   2.2169   4.3778   4.3778   4.6557   4.6557   5.1803   5.1803
     6.2486   6.2486   6.4100   6.4100   7.4312   7.4312   8.9319   8.9319
     9.0688   9.0688   9.1388   9.1388  10.4854  10.4854  10.5139  10.5139
    10.5990  10.5990  11.6619  11.6619

          k = 0.1167 0.0674 0.0000 (  9337 PWs)   bands (ev):

   -61.8180 -61.8180 -37.5615 -37.5615 -35.1214 -35.1214 -34.9960 -34.9960
   -14.8354 -14.8354 -13.6585 -13.6585  -6.3448  -6.3448  -3.9762  -3.9762
    -3.4772  -3.4772  -3.3427  -3.3427  -2.7494  -2.7494  -2.0464  -2.0463
    -1.0887  -1.0887   1.5558   1.5559   1.6217   1.6217   1.8307   1.8307
     2.1347   2.1347   4.2949   4.2949   4.5749   4.5749   5.0951   5.0951
     6.1720   6.1720   6.2020   6.2020   7.3463   7.3463   8.8208   8.8208
     9.0332   9.0332   9.1850   9.1850  10.4034  10.4034  10.4477  10.4477
    10.6714  10.6714  11.7292  11.7292

          k = 0.1000 0.0577 0.0000 (  9347 PWs)   bands (ev):

   -61.8192 -61.8192 -37.5581 -37.5581 -35.1196 -35.1196 -34.9883 -34.9883
   -14.8869 -14.8869 -13.6799 -13.6799  -6.4004  -6.4004  -3.8756  -3.8756
    -3.4069  -3.4069  -3.3380  -3.3380  -2.6772  -2.6772  -2.0796  -2.0796
    -1.0526  -1.0526   1.6164   1.6164   1.6812   1.6813   1.8801   1.8801
     2.0593   2.0593   4.2218   4.2218   4.5046   4.5046   5.0167   5.0167
     6.0058   6.0058   6.1056   6.1056   7.2743   7.2743   8.6649   8.6649
     8.9637   8.9637   9.2952   9.2952  10.2603  10.2603  10.3713  10.3713
    10.8708  10.8708  11.7836  11.7836

          k = 0.0833 0.0481 0.0000 (  9359 PWs)   bands (ev):

   -61.8203 -61.8203 -37.5552 -37.5552 -35.1182 -35.1182 -34.9815 -34.9815
   -14.9310 -14.9310 -13.6983 -13.6983  -6.4493  -6.4493  -3.7853  -3.7853
    -3.4458  -3.4458  -3.2185  -3.2185  -2.6126  -2.6126  -2.1281  -2.1281
    -1.0250  -1.0250   1.6579   1.6579   1.7666   1.7666   1.9211   1.9211
     1.9961   1.9961   4.1585   4.1585   4.4447   4.4447   4.9453   4.9453
     5.8302   5.8302   6.0485   6.0485   7.2140   7.2140   8.5006   8.5006
     8.9096   8.9096   9.4052   9.4052  10.1266  10.1266  10.3051  10.3051
    11.0868  11.0868  11.8195  11.8195

          k = 0.0667 0.0385 0.0000 (  9345 PWs)   bands (ev):

   -61.8212 -61.8212 -37.5528 -37.5528 -35.1171 -35.1171 -34.9757 -34.9757
   -14.9675 -14.9675 -13.7134 -13.7134  -6.4906  -6.4906  -3.7081  -3.7081
    -3.4812  -3.4812  -3.0970  -3.0970  -2.5573  -2.5573  -2.1897  -2.1897
    -1.0046  -1.0046   1.6965   1.6965   1.8474   1.8474   1.9239   1.9239
     1.9796   1.9796   4.1054   4.1054   4.3955   4.3955   4.8817   4.8817
     5.6808   5.6808   6.0016   6.0016   7.1647   7.1647   8.3488   8.3488
     8.8663   8.8663   9.5115   9.5115  10.0141  10.0141  10.2401  10.2401
    11.3016  11.3016  11.8255  11.8255

          k = 0.0500 0.0289 0.0000 (  9343 PWs)   bands (ev):

   -61.8219 -61.8219 -37.5509 -37.5509 -35.1163 -35.1163 -34.9710 -34.9710
   -14.9961 -14.9961 -13.7253 -13.7253  -6.5234  -6.5234  -3.6474  -3.6474
    -3.5074  -3.5074  -2.9798  -2.9798  -2.5135  -2.5135  -2.2607  -2.2607
    -0.9902  -0.9902   1.7301   1.7301   1.8677   1.8677   1.9411   1.9411
     2.0051   2.0051   4.0628   4.0628   4.3571   4.3571   4.8274   4.8274
     5.5621   5.5621   5.9648   5.9648   7.1261   7.1261   8.2210   8.2210
     8.8325   8.8325   9.6107   9.6107   9.9258   9.9258  10.1764  10.1764
    11.4986  11.4986  11.8175  11.8175

          k = 0.0333 0.0192 0.0000 (  9367 PWs)   bands (ev):

   -61.8224 -61.8224 -37.5495 -37.5495 -35.1157 -35.1157 -34.9676 -34.9676
   -15.0167 -15.0167 -13.7339 -13.7339  -6.5473  -6.5473  -3.6071  -3.6071
    -3.5218  -3.5218  -2.8709  -2.8709  -2.4848  -2.4848  -2.3340  -2.3340
    -0.9807  -0.9807   1.7520   1.7520   1.8466   1.8466   1.9956   1.9956
     2.0274   2.0274   4.0315   4.0315   4.3295   4.3295   4.7851   4.7851
     5.4766   5.4766   5.9385   5.9385   7.0984   7.0984   8.1246   8.1246
     8.8083   8.8083   9.6967   9.6967   9.8649   9.8649  10.1152  10.1152
    11.6600  11.6600  11.8110  11.8110

          k = 0.0167 0.0096 0.0000 (  9375 PWs)   bands (ev):

   -61.8227 -61.8227 -37.5487 -37.5487 -35.1154 -35.1154 -34.9655 -34.9655
   -15.0291 -15.0291 -13.7390 -13.7390  -6.5617  -6.5617  -3.5896  -3.5896
    -3.5232  -3.5232  -2.7806  -2.7806  -2.4798  -2.4798  -2.3905  -2.3905
    -0.9753  -0.9753   1.7590   1.7590   1.8389   1.8389   2.0327   2.0327
     2.0414   2.0414   4.0122   4.0122   4.3129   4.3129   4.7579   4.7579
     5.4252   5.4252   5.9226   5.9226   7.0817   7.0817   8.0648   8.0648
     8.7937   8.7937   9.7535   9.7535   9.8399   9.8399  10.0624  10.0624
    11.7649  11.7649  11.8094  11.8094

          k = 0.0000 0.0000 0.0000 (  9363 PWs)   bands (ev):

   -61.8228 -61.8228 -37.5484 -37.5484 -35.1153 -35.1153 -34.9648 -34.9648
   -15.0332 -15.0332 -13.7408 -13.7408  -6.5665  -6.5665  -3.5862  -3.5862
    -3.5212  -3.5212  -2.7398  -2.7398  -2.4916  -2.4916  -2.4067  -2.4067
    -0.9736  -0.9736   1.7592   1.7592   1.8385   1.8385   2.0459   2.0459
     2.0459   2.0459   4.0057   4.0057   4.3074   4.3074   4.7485   4.7485
     5.4082   5.4082   5.9174   5.9174   7.0761   7.0761   8.0445   8.0445
     8.7888   8.7888   9.7663   9.7663   9.8448   9.8448  10.0379  10.0379
    11.7932  11.7932  11.8171  11.8171

     Writing output data file ../tmp/mos2.save/

     init_run     :      0.45s CPU      0.51s WALL (       1 calls)
     electrons    :    523.27s CPU    531.04s WALL (       1 calls)

     Called by init_run:
     wfcinit      :      0.00s CPU      0.00s WALL (       1 calls)
     potinit      :      0.01s CPU      0.02s WALL (       1 calls)
     hinit0       :      0.27s CPU      0.28s WALL (       1 calls)

     Called by electrons:
     c_bands      :    523.27s CPU    531.04s WALL (       1 calls)
     v_of_rho     :      0.01s CPU      0.01s WALL (       1 calls)
     newd         :      0.09s CPU      0.13s WALL (       1 calls)

     Called by c_bands:
     init_us_2    :      0.04s CPU      0.06s WALL (      91 calls)
     cegterg      :    508.68s CPU    515.79s WALL (     204 calls)

     Called by *egterg:
     cdiaghg      :     13.14s CPU     13.30s WALL (    3398 calls)
     h_psi        :    161.23s CPU    168.05s WALL (    3602 calls)
     s_psi        :     29.61s CPU     29.64s WALL (    3602 calls)
     g_psi        :      2.28s CPU      2.28s WALL (    3307 calls)

     Called by h_psi:
     h_psi:calbec :     30.06s CPU     30.52s WALL (    3602 calls)
     vloc_psi     :    100.70s CPU    107.00s WALL (    3602 calls)
     add_vuspsi   :     29.50s CPU     29.55s WALL (    3602 calls)

     General routines
     calbec       :     30.05s CPU     30.52s WALL (    3602 calls)
     fft          :      0.00s CPU      0.01s WALL (      15 calls)
     fftw         :     89.28s CPU     94.90s WALL (  448788 calls)
     davcio       :      0.14s CPU      0.44s WALL (     182 calls)

     Parallel routines
     fft_scatt_xy :     11.47s CPU     12.19s WALL (  448803 calls)
     fft_scatt_yz :     18.46s CPU     19.70s WALL (  448803 calls)

     PWSCF        :   8m44.27s CPU   8m52.79s WALL


   This run was terminated on:  16:20:22   1Jan2023            

=------------------------------------------------------------------------------=
   JOB DONE.
=------------------------------------------------------------------------------=
