
     Program PWSCF v.6.7MaX starts on  1Jan2023 at 16:11: 2 

     This program is part of the open-source Quantum ESPRESSO suite
     for quantum simulation of materials; please cite
         "P. Giannozzi et al., J. Phys.:Condens. Matter 21 395502 (2009);
         "P. Giannozzi et al., J. Phys.:Condens. Matter 29 465901 (2017);
          URL http://www.quantum-espresso.org", 
     in publications or presentations arising from this work. More details at
     http://www.quantum-espresso.org/quote

     Parallel version (MPI), running on     4 processors

     MPI processes distributed on     1 nodes
     R & G space division:  proc/nbgrp/npool/nimage =       4
     Waiting for input...
     Reading input from standard input

     Current dimensions of program PWSCF are:
     Max number of different atomic species (ntypx) = 10
     Max number of k-points (npk) =  40000
     Max angular momentum in pseudopotentials (lmaxx) =  3
     file Mo.rel-pbe-spn-rrkjus_psl.1.0.0.UPF: wavefunction(s)  4S renormalized

     Subspace diagonalization in iterative solution of the eigenvalue problem:
     one sub-group per band group will be used
     scalapack distributed-memory algorithm (size of sub-group:  2*  2 procs)


     Parallelization info
     --------------------
     sticks:   dense  smooth     PW     G-vecs:    dense   smooth      PW
     Min         148     148     42                18582    18582    2966
     Max         149     149     43                18603    18603    2970
     Sum         595     595    169                74365    74365   11873



     bravais-lattice index     =            4
     lattice parameter (alat)  =       6.0141  a.u.
     unit-cell volume          =    1183.8569 (a.u.)^3
     number of atoms/cell      =            3
     number of atomic types    =            2
     number of electrons       =        26.00
     number of Kohn-Sham states=           26
     kinetic-energy cutoff     =      60.0000  Ry
     charge density cutoff     =     240.0000  Ry
     scf convergence threshold =      1.0E-06
     mixing beta               =       0.7000
     number of iterations used =            8  plain     mixing
     Exchange-correlation= PBE
                           (   1   4   3   4   0   0   0)
     Non magnetic calculation with spin-orbit


     celldm(1)=   6.014089  celldm(2)=   0.000000  celldm(3)=   6.284330
     celldm(4)=   0.000000  celldm(5)=   0.000000  celldm(6)=   0.000000

     crystal axes: (cart. coord. in units of alat)
               a(1) = (   1.000000   0.000000   0.000000 )  
               a(2) = (  -0.500000   0.866025   0.000000 )  
               a(3) = (   0.000000   0.000000   6.284330 )  

     reciprocal axes: (cart. coord. in units 2 pi/alat)
               b(1) = (  1.000000  0.577350 -0.000000 )  
               b(2) = (  0.000000  1.154701  0.000000 )  
               b(3) = (  0.000000 -0.000000  0.159126 )  


     PseudoPot. # 1 for Mo read from file:
     ../pseudo/Mo.rel-pbe-spn-rrkjus_psl.1.0.0.UPF
     MD5 check sum: efb2e050edcba4ab52b616d1147efb03
     Pseudo is Ultrasoft + core correction, Zval = 14.0
     Generated using &quot;atomic&quot; code by A. Dal Corso  v.6.3
     Using radial grid of 1229 points, 10 beta functions with: 
                l(1) =   0
                l(2) =   0
                l(3) =   1
                l(4) =   1
                l(5) =   1
                l(6) =   1
                l(7) =   2
                l(8) =   2
                l(9) =   2
               l(10) =   2
     Q(r) pseudized with 0 coefficients 


     PseudoPot. # 2 for S  read from file:
     ../pseudo/S.rel-pbe-nl-rrkjus_psl.1.0.0.UPF
     MD5 check sum: 80b074254335e853e3620d9b035327a4
     Pseudo is Ultrasoft + core correction, Zval =  6.0
     Generated using &quot;atomic&quot; code by A. Dal Corso  v.6.3
     Using radial grid of 1151 points,  6 beta functions with: 
                l(1) =   0
                l(2) =   0
                l(3) =   1
                l(4) =   1
                l(5) =   1
                l(6) =   1
     Q(r) pseudized with 0 coefficients 


     atomic species   valence    mass     pseudopotential
        Mo            14.00    95.94000     Mo( 1.00)
        S              6.00    32.06500     S ( 1.00)

     12 Sym. Ops. (no inversion) found



   Cartesian axes

     site n.     atom                  positions (alat units)
         1           Mo  tau(   1) = (   0.0000000   0.0000000   3.1421652  )
         2           S   tau(   2) = (  -0.0000000   0.5773503   2.6504465  )
         3           S   tau(   3) = (  -0.0000000   0.5773503   3.6338831  )

     number of k points=     7
                       cart. coord. in units 2pi/alat
        k(    1) = (   0.0000000   0.0000000   0.0000000), wk =   0.0277778
        k(    2) = (   0.0000000   0.1924501   0.0000000), wk =   0.1666667
        k(    3) = (   0.0000000   0.3849002   0.0000000), wk =   0.1666667
        k(    4) = (   0.0000000  -0.5773503   0.0000000), wk =   0.0833333
        k(    5) = (   0.1666667   0.2886751   0.0000000), wk =   0.1666667
        k(    6) = (   0.1666667   0.4811252   0.0000000), wk =   0.3333333
        k(    7) = (   0.3333333   0.5773503   0.0000000), wk =   0.0555556

     Dense  grid:    74365 G-vectors     FFT dimensions: (  30,  30, 192)

     Estimated max dynamical RAM per process >     230.23 MB

     Estimated total dynamical RAM >     920.91 MB

     Initial potential from superposition of free atoms

     starting charge   25.99904, renormalised to   26.00000

     negative rho (up, down):  2.509E-03 0.000E+00
     Starting wfcs are   36 randomized atomic wfcs

     total cpu time spent up to now is        1.3 secs

     Self-consistent Calculation

     iteration #  1     ecut=    60.00 Ry     beta= 0.70
     Davidson diagonalization with overlap
     ethr =  1.00E-02,  avg # of iterations =  2.0

     Threshold (ethr) on eigenvalues was too large:
     Diagonalizing with lowered threshold

     Davidson diagonalization with overlap
     ethr =  2.64E-04,  avg # of iterations =  3.7

     negative rho (up, down):  2.795E-03 0.000E+00

     total cpu time spent up to now is        5.0 secs

     total energy              =    -181.59121303 Ry
     estimated scf accuracy    <       0.11312636 Ry

     iteration #  2     ecut=    60.00 Ry     beta= 0.70
     Davidson diagonalization with overlap
     ethr =  4.35E-04,  avg # of iterations =  4.0

     negative rho (up, down):  2.744E-03 0.000E+00

     total cpu time spent up to now is        7.2 secs

     total energy              =    -181.59067837 Ry
     estimated scf accuracy    <       0.15643788 Ry

     iteration #  3     ecut=    60.00 Ry     beta= 0.70
     Davidson diagonalization with overlap
     ethr =  4.35E-04,  avg # of iterations =  4.4

     negative rho (up, down):  2.771E-03 0.000E+00

     total cpu time spent up to now is        9.3 secs

     total energy              =    -181.62401117 Ry
     estimated scf accuracy    <       0.05466637 Ry

     iteration #  4     ecut=    60.00 Ry     beta= 0.70
     Davidson diagonalization with overlap
     ethr =  2.10E-04,  avg # of iterations =  2.7

     negative rho (up, down):  2.810E-03 0.000E+00

     total cpu time spent up to now is       11.0 secs

     total energy              =    -181.62906170 Ry
     estimated scf accuracy    <       0.00367374 Ry

     iteration #  5     ecut=    60.00 Ry     beta= 0.70
     Davidson diagonalization with overlap
     ethr =  1.41E-05,  avg # of iterations =  6.0

     negative rho (up, down):  2.822E-03 0.000E+00

     total cpu time spent up to now is       13.7 secs

     total energy              =    -181.63109765 Ry
     estimated scf accuracy    <       0.01442353 Ry

     iteration #  6     ecut=    60.00 Ry     beta= 0.70
     Davidson diagonalization with overlap
     ethr =  1.41E-05,  avg # of iterations =  4.1

     negative rho (up, down):  2.833E-03 0.000E+00

     total cpu time spent up to now is       15.6 secs

     total energy              =    -181.63125882 Ry
     estimated scf accuracy    <       0.00200151 Ry

     iteration #  7     ecut=    60.00 Ry     beta= 0.70
     Davidson diagonalization with overlap
     ethr =  7.70E-06,  avg # of iterations =  4.9

     negative rho (up, down):  2.833E-03 0.000E+00

     total cpu time spent up to now is       17.9 secs

     total energy              =    -181.63201797 Ry
     estimated scf accuracy    <       0.00067612 Ry

     iteration #  8     ecut=    60.00 Ry     beta= 0.70
     Davidson diagonalization with overlap
     ethr =  2.60E-06,  avg # of iterations =  1.6

     negative rho (up, down):  2.832E-03 0.000E+00

     total cpu time spent up to now is       19.4 secs

     total energy              =    -181.63190564 Ry
     estimated scf accuracy    <       0.00037496 Ry

     iteration #  9     ecut=    60.00 Ry     beta= 0.70
     Davidson diagonalization with overlap
     ethr =  1.44E-06,  avg # of iterations =  4.1

     negative rho (up, down):  2.833E-03 0.000E+00

     total cpu time spent up to now is       21.4 secs

     total energy              =    -181.63200005 Ry
     estimated scf accuracy    <       0.00001772 Ry

     iteration # 10     ecut=    60.00 Ry     beta= 0.70
     Davidson diagonalization with overlap
     ethr =  6.82E-08,  avg # of iterations =  4.0

     negative rho (up, down):  2.832E-03 0.000E+00

     total cpu time spent up to now is       23.4 secs

     total energy              =    -181.63199940 Ry
     estimated scf accuracy    <       0.00002049 Ry

     iteration # 11     ecut=    60.00 Ry     beta= 0.70
     Davidson diagonalization with overlap
     ethr =  6.82E-08,  avg # of iterations =  3.1

     negative rho (up, down):  2.832E-03 0.000E+00

     total cpu time spent up to now is       25.0 secs

     total energy              =    -181.63199964 Ry
     estimated scf accuracy    <       0.00000508 Ry

     iteration # 12     ecut=    60.00 Ry     beta= 0.70
     Davidson diagonalization with overlap
     ethr =  1.95E-08,  avg # of iterations =  4.4

     negative rho (up, down):  2.832E-03 0.000E+00

     total cpu time spent up to now is       26.9 secs

     End of self-consistent calculation

          k = 0.0000 0.0000 0.0000 (  9363 PWs)   bands (ev):

   -61.8255 -61.8255 -37.5509 -37.5509 -35.1177 -35.1177 -34.9674 -34.9674
   -15.0331 -15.0331 -13.7406 -13.7406  -6.5668  -6.5668  -3.5872  -3.5872
    -3.5221  -3.5221  -2.7396  -2.7396  -2.4924  -2.4924  -2.4075  -2.4075
    -0.9746  -0.9746

          k = 0.0000 0.1925 0.0000 (  9319 PWs)   bands (ev):

   -61.8160 -61.8160 -37.5768 -37.5768 -35.1324 -35.1324 -35.0246 -35.0246
   -14.6403 -14.6403 -13.5773 -13.5773  -6.1541  -6.1541  -4.3108  -4.3108
    -3.8645  -3.8645  -3.1513  -3.1513  -2.9946  -2.9946  -2.0462  -2.0462
    -1.2578  -1.2578

          k = 0.0000 0.3849 0.0000 (  9303 PWs)   bands (ev):

   -61.7973 -61.7973 -37.6322 -37.6322 -35.2134 -35.2134 -35.0790 -35.0790
   -13.7280 -13.7280 -13.2049 -13.2049  -6.1793  -6.1793  -5.1296  -5.1296
    -4.8589  -4.8589  -3.7920  -3.7920  -2.6000  -2.6000  -2.3142  -2.3142
    -1.9233  -1.9233

          k = 0.0000-0.5774 0.0000 (  9276 PWs)   bands (ev):

   -61.7879 -61.7879 -37.6617 -37.6617 -35.2704 -35.2704 -35.0857 -35.0857
   -13.1662 -13.1662 -12.9874 -12.9874  -6.7171  -6.7171  -5.7380  -5.7380
    -5.0226  -5.0226  -4.1086  -4.1086  -2.8473  -2.8473  -1.9320  -1.9320
    -1.5897  -1.5897

          k = 0.1667 0.2887 0.0000 (  9323 PWs)   bands (ev):

   -61.8020 -61.8020 -37.6210 -37.6135 -35.1785 -35.1749 -35.0876 -35.0804
   -13.9875 -13.9719 -13.3025 -13.3011  -5.8795  -5.8571  -4.7844  -4.7751
    -4.6287  -4.5987  -4.1497  -4.1204  -2.9552  -2.8810  -2.0321  -1.9981
    -1.7796  -1.7080

          k = 0.1667 0.4811 0.0000 (  9262 PWs)   bands (ev):

   -61.7878 -61.7878 -37.6670 -37.6517 -35.2577 -35.2363 -35.1135 -35.1133
   -13.2066 -13.1683 -12.9728 -12.9698  -6.2589  -6.2470  -5.8363  -5.8272
    -4.7897  -4.7860  -4.1684  -4.1507  -3.3465  -3.2824  -2.6862  -2.6759
    -1.5059  -1.3976

          k = 0.3333 0.5774 0.0000 (  9234 PWs)   bands (ev):

   -61.7831 -61.7831 -37.6832 -37.6600 -35.2699 -35.2223 -35.1580 -35.1429
   -12.9308 -12.8694 -12.8299 -12.8261  -6.3504  -6.3437  -5.5533  -5.5178
    -5.0474  -4.9902  -4.5274  -4.5101  -3.8560  -3.8059  -3.1403  -3.1166
    -1.0467  -0.8982

     highest occupied level (ev):    -0.8982

!    total energy              =    -181.63200089 Ry
     estimated scf accuracy    <       0.00000004 Ry

     The total energy is the sum of the following terms:
     one-electron contribution =   -1116.84738640 Ry
     hartree contribution      =     558.64924007 Ry
     xc contribution           =     -29.70817864 Ry
     ewald contribution        =     406.27432408 Ry

     convergence has been achieved in  12 iterations

     Writing output data file ../tmp/mos2.save/

     init_run     :      1.07s CPU      1.14s WALL (       1 calls)
     electrons    :     24.06s CPU     25.62s WALL (       1 calls)

     Called by init_run:
     wfcinit      :      0.55s CPU      0.58s WALL (       1 calls)
     potinit      :      0.07s CPU      0.08s WALL (       1 calls)
     hinit0       :      0.27s CPU      0.27s WALL (       1 calls)

     Called by electrons:
     c_bands      :     19.59s CPU     20.03s WALL (      13 calls)
     sum_band     :      3.07s CPU      3.72s WALL (      13 calls)
     v_of_rho     :      0.13s CPU      0.14s WALL (      13 calls)
     newd         :      1.16s CPU      1.68s WALL (      13 calls)
     mix_rho      :      0.16s CPU      0.17s WALL (      13 calls)

     Called by c_bands:
     init_us_2    :      0.11s CPU      0.11s WALL (     189 calls)
     cegterg      :     18.58s CPU     19.01s WALL (      91 calls)

     Called by *egterg:
     cdiaghg      :      0.29s CPU      0.30s WALL (     428 calls)
     h_psi        :     10.25s CPU     10.68s WALL (     442 calls)
     s_psi        :      1.86s CPU      1.87s WALL (     442 calls)
     g_psi        :      0.11s CPU      0.11s WALL (     344 calls)

     Called by h_psi:
     h_psi:calbec :      1.86s CPU      1.91s WALL (     442 calls)
     vloc_psi     :      6.46s CPU      6.84s WALL (     442 calls)
     add_vuspsi   :      1.86s CPU      1.87s WALL (     442 calls)

     General routines
     calbec       :      2.49s CPU      2.54s WALL (     533 calls)
     fft          :      0.08s CPU      0.08s WALL (     180 calls)
     ffts         :      0.02s CPU      0.02s WALL (      52 calls)
     fftw         :      6.63s CPU      7.01s WALL (   32772 calls)

     Parallel routines
     fft_scatt_xy :      0.93s CPU      0.98s WALL (   33004 calls)
     fft_scatt_yz :      1.46s CPU      1.54s WALL (   33004 calls)

     PWSCF        :     25.28s CPU     26.98s WALL


   This run was terminated on:  16:11:29   1Jan2023            

=------------------------------------------------------------------------------=
   JOB DONE.
=------------------------------------------------------------------------------=
