
     Program PWSCF v.7.0 starts on  2Feb2022 at  0:31:14 

     This program is part of the open-source Quantum ESPRESSO suite
     for quantum simulation of materials; please cite
         "P. Giannozzi et al., J. Phys.:Condens. Matter 21 395502 (2009);
         "P. Giannozzi et al., J. Phys.:Condens. Matter 29 465901 (2017);
         "P. Giannozzi et al., J. Chem. Phys. 152 154105 (2020);
          URL http://www.quantum-espresso.org", 
     in publications or presentations arising from this work. More details at
     http://www.quantum-espresso.org/quote

     Parallel version (MPI), running on     4 processors

     MPI processes distributed on     1 nodes
     R & G space division:  proc/nbgrp/npool/nimage =       4
     235810 MiB available memory on the printing compute node when the environment starts
 
     Waiting for input...
     Reading input from standard input

     Current dimensions of program PWSCF are:
     Max number of different atomic species (ntypx) = 10
     Max number of k-points (npk) =  40000
     Max angular momentum in pseudopotentials (lmaxx) =  4

     IMPORTANT: XC functional enforced from input :
     Exchange-correlation= RVV10
                           (   1   4  13   4  26   0   0)
     Any further DFT definition will be discarded
     Please, verify this is what you really want


     Subspace diagonalization in iterative solution of the eigenvalue problem:
     a serial algorithm will be used

 
     Parallelization info
     --------------------
     sticks:   dense  smooth     PW     G-vecs:    dense   smooth      PW
     Min          90      90     27                11152    11152    1895
     Max          91      91     28                11175    11175    1922
     Sum         361     361    109                44659    44659    7615
 
     Using Slab Decomposition
 


     bravais-lattice index     =            4
     lattice parameter (alat)  =       4.6561  a.u.
     unit-cell volume          =     709.5865 (a.u.)^3
     number of atoms/cell      =            4
     number of atomic types    =            1
     number of electrons       =        16.00
     number of Kohn-Sham states=           12
     kinetic-energy cutoff     =      60.0000  Ry
     charge density cutoff     =     240.0000  Ry
     scf convergence threshold =      1.0E-09
     mixing beta               =       0.7000
     number of iterations used =            8  plain     mixing
     energy convergence thresh.=      1.0E-05
     force convergence thresh. =      1.0E-04
     press convergence thresh. =      5.0E-02
     Exchange-correlation= RVV10
                           (   1   4  13   4  26   0   0)
     nstep                     =           50


     celldm(1)=   4.656107  celldm(2)=   0.000000  celldm(3)=   8.117194
     celldm(4)=   0.000000  celldm(5)=   0.000000  celldm(6)=   0.000000

     crystal axes: (cart. coord. in units of alat)
               a(1) = (   1.000000   0.000000   0.000000 )  
               a(2) = (  -0.500000   0.866025   0.000000 )  
               a(3) = (   0.000000   0.000000   8.117194 )  

     reciprocal axes: (cart. coord. in units 2 pi/alat)
               b(1) = (  1.000000  0.577350  0.000000 )  
               b(2) = (  0.000000  1.154701  0.000000 )  
               b(3) = (  0.000000  0.000000  0.123195 )  


     PseudoPot. # 1 for C  read from file:
     ../pseudo/C.pbe-n-rrkjus_psl.0.1.UPF
     MD5 check sum: 96a6a315177d77e6c95bf6fd3870f9e3
     Pseudo is Ultrasoft + core correction, Zval =  4.0
     Generated using &quot;atomic&quot; code by A. Dal Corso  v.6.3MaX
     Using radial grid of 1073 points,  4 beta functions with: 
                l(1) =   0
                l(2) =   0
                l(3) =   1
                l(4) =   1
     Q(r) pseudized with 0 coefficients 


     atomic species   valence    mass     pseudopotential
        C              4.00    12.01070     C ( 1.00)

     12 Sym. Ops., with inversion, found



   Cartesian axes

     site n.     atom                  positions (alat units)
         1           C   tau(   1) = (   0.0000000   0.0000000   3.3483426  )
         2           C   tau(   2) = (   0.0000000   0.5773503   3.3483426  )
         3           C   tau(   3) = (   0.0000000   0.0000000   4.7688516  )
         4           C   tau(   4) = (   0.5000000   0.2886751   4.7688516  )

     number of k points=    10  Marzari-Vanderbilt smearing, width (Ry)=  0.0200
                       cart. coord. in units 2pi/alat
        k(    1) = (   0.0000000   0.0000000   0.0000000), wk =   0.0312500
        k(    2) = (   0.0000000   0.1443376   0.0000000), wk =   0.1875000
        k(    3) = (   0.0000000   0.2886751   0.0000000), wk =   0.1875000
        k(    4) = (   0.0000000   0.4330127   0.0000000), wk =   0.1875000
        k(    5) = (   0.0000000  -0.5773503   0.0000000), wk =   0.0937500
        k(    6) = (   0.1250000   0.2165064   0.0000000), wk =   0.1875000
        k(    7) = (   0.1250000   0.3608439   0.0000000), wk =   0.3750000
        k(    8) = (   0.1250000   0.5051815   0.0000000), wk =   0.3750000
        k(    9) = (   0.2500000   0.4330127   0.0000000), wk =   0.1875000
        k(   10) = (   0.2500000   0.5773503   0.0000000), wk =   0.1875000

     Dense  grid:    44659 G-vectors     FFT dimensions: (  24,  24, 192)

     Estimated max dynamical RAM per process >      19.86 MB

     Estimated total dynamical RAM >      79.43 MB

     Check: negative core charge=   -0.000004

     Initial potential from superposition of free atoms

     starting charge      15.9998, renormalised to      16.0000

     negative rho (up, down):  1.330E-04 0.000E+00


---------------------------------------------------------------------------------
Carrying out rVV10 run using the following parameters:
Nqs =      20    Nr_points =    1024   r_max =   100.000
b_value =  6.30000    beta =  0.00901
     q_mesh =  0.00010000  0.00030000  0.00058939  0.00100810
               0.00161396  0.00249058  0.00375900  0.00559430
               0.00824984  0.01209221  0.01765183  0.02569619
               0.03733578  0.05417739  0.07854596  0.11380545
               0.16482331  0.23864234  0.34545298  0.50000000

Gradients computed in Reciprocal space

---------------------------------------------------------------------------------


     Starting wfcs are   16 randomized atomic wfcs

     total cpu time spent up to now is        1.2 secs

     Self-consistent Calculation

     iteration #  1     ecut=    60.00 Ry     beta= 0.70
     Davidson diagonalization with overlap
     ethr =  1.00E-02,  avg # of iterations =  3.9

     Threshold (ethr) on eigenvalues was too large:
     Diagonalizing with lowered threshold

     Davidson diagonalization with overlap
     ethr =  7.24E-04,  avg # of iterations =  7.2

     negative rho (up, down):  3.809E-05 0.000E+00

     total cpu time spent up to now is        1.9 secs

     total energy              =     -47.84878153 Ry
     estimated scf accuracy    <       0.37377208 Ry

     iteration #  2     ecut=    60.00 Ry     beta= 0.70
     Davidson diagonalization with overlap
     ethr =  2.34E-03,  avg # of iterations =  1.5

     negative rho (up, down):  1.400E-04 0.000E+00

     total cpu time spent up to now is        2.2 secs

     total energy              =     -47.85075922 Ry
     estimated scf accuracy    <       0.02092339 Ry

     iteration #  3     ecut=    60.00 Ry     beta= 0.70
     Davidson diagonalization with overlap
     c_bands:  4 eigenvalues not converged
     c_bands:  4 eigenvalues not converged
     c_bands:  4 eigenvalues not converged
     c_bands:  1 eigenvalues not converged
     c_bands:  2 eigenvalues not converged
     c_bands:  2 eigenvalues not converged
     ethr =  1.31E-04,  avg # of iterations = 16.9

     negative rho (up, down):  1.436E-04 0.000E+00

     total cpu time spent up to now is        3.0 secs

     total energy              =     -47.91965858 Ry
     estimated scf accuracy    <       0.02897165 Ry

     iteration #  4     ecut=    60.00 Ry     beta= 0.70
     Davidson diagonalization with overlap
     ethr =  1.31E-04,  avg # of iterations =  4.3

     negative rho (up, down):  1.445E-04 0.000E+00

     total cpu time spent up to now is        3.3 secs

     total energy              =     -47.92313603 Ry
     estimated scf accuracy    <       0.03910421 Ry

     iteration #  5     ecut=    60.00 Ry     beta= 0.70
     Davidson diagonalization with overlap
     ethr =  1.31E-04,  avg # of iterations =  1.0

     negative rho (up, down):  1.244E-04 0.000E+00

     total cpu time spent up to now is        3.6 secs

     total energy              =     -47.90848819 Ry
     estimated scf accuracy    <       0.04205209 Ry

     iteration #  6     ecut=    60.00 Ry     beta= 0.70
     Davidson diagonalization with overlap
     ethr =  1.31E-04,  avg # of iterations =  1.0

     negative rho (up, down):  1.287E-04 0.000E+00

     total cpu time spent up to now is        3.8 secs

     total energy              =     -47.90194337 Ry
     estimated scf accuracy    <       0.01973516 Ry

     iteration #  7     ecut=    60.00 Ry     beta= 0.70
     Davidson diagonalization with overlap
     ethr =  1.23E-04,  avg # of iterations =  1.9

     negative rho (up, down):  1.269E-04 0.000E+00

     total cpu time spent up to now is        4.0 secs

     total energy              =     -47.90354979 Ry
     estimated scf accuracy    <       0.00739229 Ry

     iteration #  8     ecut=    60.00 Ry     beta= 0.70
     Davidson diagonalization with overlap
     ethr =  4.62E-05,  avg # of iterations =  1.4

     negative rho (up, down):  1.275E-04 0.000E+00

     total cpu time spent up to now is        4.3 secs

     total energy              =     -47.90390646 Ry
     estimated scf accuracy    <       0.00770543 Ry

     iteration #  9     ecut=    60.00 Ry     beta= 0.70
     Davidson diagonalization with overlap
     ethr =  4.62E-05,  avg # of iterations =  2.1

     negative rho (up, down):  1.258E-04 0.000E+00

     total cpu time spent up to now is        4.5 secs

     total energy              =     -47.90386927 Ry
     estimated scf accuracy    <       0.00702622 Ry

     iteration # 10     ecut=    60.00 Ry     beta= 0.70
     Davidson diagonalization with overlap
     ethr =  4.39E-05,  avg # of iterations =  1.1

     negative rho (up, down):  1.210E-04 0.000E+00

     total cpu time spent up to now is        4.8 secs

     total energy              =     -47.90297228 Ry
     estimated scf accuracy    <       0.00638839 Ry

     iteration # 11     ecut=    60.00 Ry     beta= 0.70
     Davidson diagonalization with overlap
     ethr =  3.99E-05,  avg # of iterations =  1.0

     negative rho (up, down):  1.605E-04 0.000E+00

     total cpu time spent up to now is        5.0 secs

     total energy              =     -47.90186642 Ry
     estimated scf accuracy    <       0.00461891 Ry

     iteration # 12     ecut=    60.00 Ry     beta= 0.70
     Davidson diagonalization with overlap
     ethr =  2.89E-05,  avg # of iterations =  3.3

     negative rho (up, down):  1.750E-04 0.000E+00

     total cpu time spent up to now is        5.3 secs

     WARNING: integrated charge=    16.00000169, expected=    16.00000000

     total energy              =     -47.90158415 Ry
     estimated scf accuracy    <       0.00177777 Ry

     iteration # 13     ecut=    60.00 Ry     beta= 0.70
     Davidson diagonalization with overlap
     c_bands:  1 eigenvalues not converged
     ethr =  1.11E-05,  avg # of iterations = 10.6

     negative rho (up, down):  1.709E-04 0.000E+00

     total cpu time spent up to now is        5.7 secs

     WARNING: integrated charge=    16.00000168, expected=    16.00000000

     total energy              =     -47.90248707 Ry
     estimated scf accuracy    <       0.00071909 Ry

     iteration # 14     ecut=    60.00 Ry     beta= 0.70
     Davidson diagonalization with overlap
     c_bands:  1 eigenvalues not converged
     ethr =  4.49E-06,  avg # of iterations =  8.5

     negative rho (up, down):  1.647E-04 0.000E+00

     total cpu time spent up to now is        6.1 secs

     WARNING: integrated charge=    16.00000168, expected=    16.00000000

     total energy              =     -47.90295563 Ry
     estimated scf accuracy    <       0.00073496 Ry

     iteration # 15     ecut=    60.00 Ry     beta= 0.70
     Davidson diagonalization with overlap
     ethr =  4.49E-06,  avg # of iterations =  1.7

     negative rho (up, down):  1.678E-04 0.000E+00

     total cpu time spent up to now is        6.4 secs

     WARNING: integrated charge=    16.00000169, expected=    16.00000000

     total energy              =     -47.90320008 Ry
     estimated scf accuracy    <       0.00089975 Ry

     iteration # 16     ecut=    60.00 Ry     beta= 0.70
     Davidson diagonalization with overlap
     ethr =  4.49E-06,  avg # of iterations =  1.9

     negative rho (up, down):  1.743E-04 0.000E+00

     total cpu time spent up to now is        6.6 secs

     WARNING: integrated charge=    16.00000170, expected=    16.00000000

     total energy              =     -47.90273514 Ry
     estimated scf accuracy    <       0.00111777 Ry

     iteration # 17     ecut=    60.00 Ry     beta= 0.70
     Davidson diagonalization with overlap
     ethr =  4.49E-06,  avg # of iterations =  2.0

     negative rho (up, down):  1.763E-04 0.000E+00

     total cpu time spent up to now is        6.9 secs

     WARNING: integrated charge=    16.00000171, expected=    16.00000000

     total energy              =     -47.90260531 Ry
     estimated scf accuracy    <       0.00037762 Ry

     iteration # 18     ecut=    60.00 Ry     beta= 0.70
     Davidson diagonalization with overlap
     ethr =  2.36E-06,  avg # of iterations =  1.9

     negative rho (up, down):  1.763E-04 0.000E+00

     total cpu time spent up to now is        7.1 secs

     WARNING: integrated charge=    16.00000173, expected=    16.00000000

     total energy              =     -47.90255670 Ry
     estimated scf accuracy    <       0.00012600 Ry

     iteration # 19     ecut=    60.00 Ry     beta= 0.70
     Davidson diagonalization with overlap
     ethr =  7.88E-07,  avg # of iterations =  6.4

     negative rho (up, down):  1.772E-04 0.000E+00

     total cpu time spent up to now is        7.5 secs

     WARNING: integrated charge=    16.00000172, expected=    16.00000000

     total energy              =     -47.90261913 Ry
     estimated scf accuracy    <       0.00000620 Ry

     iteration # 20     ecut=    60.00 Ry     beta= 0.70
     Davidson diagonalization with overlap
     ethr =  3.87E-08,  avg # of iterations =  7.0

     negative rho (up, down):  1.758E-04 0.000E+00

     total cpu time spent up to now is        7.9 secs

     WARNING: integrated charge=    16.00000172, expected=    16.00000000

     total energy              =     -47.90263583 Ry
     estimated scf accuracy    <       0.00000067 Ry

     iteration # 21     ecut=    60.00 Ry     beta= 0.70
     Davidson diagonalization with overlap
     ethr =  4.20E-09,  avg # of iterations = 10.4

     negative rho (up, down):  1.764E-04 0.000E+00

     total cpu time spent up to now is        8.5 secs

     WARNING: integrated charge=    16.00000173, expected=    16.00000000

     total energy              =     -47.90262869 Ry
     estimated scf accuracy    <       0.00001325 Ry

     iteration # 22     ecut=    60.00 Ry     beta= 0.70
     Davidson diagonalization with overlap
     ethr =  4.20E-09,  avg # of iterations = 11.5

     negative rho (up, down):  1.784E-04 0.000E+00

     total cpu time spent up to now is        9.2 secs

     WARNING: integrated charge=    16.00000173, expected=    16.00000000

     total energy              =     -47.90263400 Ry
     estimated scf accuracy    <       0.00000627 Ry

     iteration # 23     ecut=    60.00 Ry     beta= 0.70
     Davidson diagonalization with overlap
     ethr =  4.20E-09,  avg # of iterations =  2.5

     negative rho (up, down):  1.781E-04 0.000E+00

     total cpu time spent up to now is        9.5 secs

     WARNING: integrated charge=    16.00000174, expected=    16.00000000

     total energy              =     -47.90263018 Ry
     estimated scf accuracy    <       0.00000596 Ry

     iteration # 24     ecut=    60.00 Ry     beta= 0.70
     Davidson diagonalization with overlap
     ethr =  4.20E-09,  avg # of iterations =  7.8

     negative rho (up, down):  1.781E-04 0.000E+00

     total cpu time spent up to now is       10.0 secs

     WARNING: integrated charge=    16.00000174, expected=    16.00000000

     total energy              =     -47.90263198 Ry
     estimated scf accuracy    <       0.00000052 Ry

     iteration # 25     ecut=    60.00 Ry     beta= 0.70
     Davidson diagonalization with overlap
     ethr =  3.26E-09,  avg # of iterations =  2.7

     negative rho (up, down):  1.781E-04 0.000E+00

     total cpu time spent up to now is       10.2 secs

     WARNING: integrated charge=    16.00000174, expected=    16.00000000

     total energy              =     -47.90263178 Ry
     estimated scf accuracy    <       0.00000096 Ry

     iteration # 26     ecut=    60.00 Ry     beta= 0.70
     Davidson diagonalization with overlap
     ethr =  3.26E-09,  avg # of iterations =  1.0

     negative rho (up, down):  1.778E-04 0.000E+00

     total cpu time spent up to now is       10.5 secs

     WARNING: integrated charge=    16.00000174, expected=    16.00000000

     total energy              =     -47.90263209 Ry
     estimated scf accuracy    <       0.00000059 Ry

     iteration # 27     ecut=    60.00 Ry     beta= 0.70
     Davidson diagonalization with overlap
     ethr =  3.26E-09,  avg # of iterations =  1.0

     negative rho (up, down):  1.778E-04 0.000E+00

     total cpu time spent up to now is       10.7 secs

     WARNING: integrated charge=    16.00000174, expected=    16.00000000

     total energy              =     -47.90263250 Ry
     estimated scf accuracy    <       0.00000103 Ry

     iteration # 28     ecut=    60.00 Ry     beta= 0.70
     Davidson diagonalization with overlap
     ethr =  3.26E-09,  avg # of iterations =  2.0

     negative rho (up, down):  1.783E-04 0.000E+00

     total cpu time spent up to now is       11.0 secs

     WARNING: integrated charge=    16.00000174, expected=    16.00000000

     total energy              =     -47.90263124 Ry
     estimated scf accuracy    <       0.00000182 Ry

     iteration # 29     ecut=    60.00 Ry     beta= 0.70
     Davidson diagonalization with overlap
     ethr =  3.26E-09,  avg # of iterations =  4.8

     negative rho (up, down):  1.784E-04 0.000E+00

     total cpu time spent up to now is       11.3 secs

     WARNING: integrated charge=    16.00000174, expected=    16.00000000

     total energy              =     -47.90263146 Ry
     estimated scf accuracy    <       0.00000001 Ry

     iteration # 30     ecut=    60.00 Ry     beta= 0.70
     Davidson diagonalization with overlap
     ethr =  7.29E-11,  avg # of iterations =  9.7

     negative rho (up, down):  1.784E-04 0.000E+00

     total cpu time spent up to now is       11.9 secs

     WARNING: integrated charge=    16.00000174, expected=    16.00000000

     total energy              =     -47.90263149 Ry
     estimated scf accuracy    <       0.00000009 Ry

     iteration # 31     ecut=    60.00 Ry     beta= 0.70
     Davidson diagonalization with overlap
     ethr =  7.29E-11,  avg # of iterations =  5.5

     negative rho (up, down):  1.785E-04 0.000E+00

     total cpu time spent up to now is       12.2 secs

     WARNING: integrated charge=    16.00000174, expected=    16.00000000

     total energy              =     -47.90263147 Ry
     estimated scf accuracy    <          6.8E-09 Ry

     iteration # 32     ecut=    60.00 Ry     beta= 0.70
     Davidson diagonalization with overlap
     ethr =  4.23E-11,  avg # of iterations =  5.1

     negative rho (up, down):  1.785E-04 0.000E+00

     total cpu time spent up to now is       12.6 secs

     WARNING: integrated charge=    16.00000174, expected=    16.00000000

     total energy              =     -47.90263149 Ry
     estimated scf accuracy    <       0.00000003 Ry

     iteration # 33     ecut=    60.00 Ry     beta= 0.70
     Davidson diagonalization with overlap
     ethr =  4.23E-11,  avg # of iterations =  2.8

     negative rho (up, down):  1.786E-04 0.000E+00

     total cpu time spent up to now is       12.9 secs

     WARNING: integrated charge=    16.00000174, expected=    16.00000000

     total energy              =     -47.90263146 Ry
     estimated scf accuracy    <       0.00000004 Ry

     iteration # 34     ecut=    60.00 Ry     beta= 0.70
     Davidson diagonalization with overlap
     ethr =  4.23E-11,  avg # of iterations =  4.7

     negative rho (up, down):  1.785E-04 0.000E+00

     total cpu time spent up to now is       13.2 secs

     End of self-consistent calculation

          k = 0.0000 0.0000 0.0000 (  5565 PWs)   bands (ev):

   -20.0211 -19.9089  -8.5003  -7.6685  -3.5829  -3.5829  -3.5770  -3.5770
     2.2573   2.6378   2.9608   4.2618

          k = 0.0000 0.1443 0.0000 (  5582 PWs)   bands (ev):

   -19.6521 -19.5426  -8.0532  -7.2344  -4.9518  -4.9356  -4.2784  -4.2669
     2.7648   3.1462   3.4641   4.7649

          k = 0.0000 0.2887 0.0000 (  5566 PWs)   bands (ev):

   -18.5548 -18.4532  -7.9394  -7.9048  -6.7390  -5.9647  -5.5752  -5.5592
     4.2838   4.6631   4.9732   6.2371

          k = 0.0000 0.4330 0.0000 (  5594 PWs)   bands (ev):

   -16.7679 -16.6794 -11.2057 -11.1523  -6.5756  -6.5576  -4.6973  -4.0365
     3.1310   3.5491   6.7865   7.1221

          k = 0.0000-0.5774 0.0000 (  5604 PWs)   bands (ev):

   -14.7705 -14.7298 -13.7042 -13.6727  -6.9358  -6.9172  -2.9658  -2.6731
     1.0729   1.3900   6.9550   7.1070

          k = 0.1250 0.2165 0.0000 (  5559 PWs)   bands (ev):

   -18.9189 -18.8148  -7.1713  -6.7402  -6.7255  -6.3806  -5.6600  -5.6495
     3.7787   4.1611   4.4713   5.7682

          k = 0.1250 0.3608 0.0000 (  5578 PWs)   bands (ev):

   -17.4758 -17.3821  -9.5195  -9.4807  -7.1703  -7.1472  -5.4718  -4.7514
     4.6195   4.8980   5.7967   6.1880

          k = 0.1250 0.5052 0.0000 (  5571 PWs)   bands (ev):

   -15.4100 -15.3333 -12.5072 -12.4501  -7.9363  -7.9085  -3.2719  -2.7625
     1.6112   1.9619   8.4891   8.6603

          k = 0.2500 0.4330 0.0000 (  5528 PWs)   bands (ev):

   -15.7366 -15.6559 -11.0297 -11.0029  -9.4318  -9.4117  -3.4927  -2.8854
     2.2549   2.4985   8.2796   8.6034

          k = 0.2500 0.5774 0.0000 (  5540 PWs)   bands (ev):

   -13.8241 -13.7874 -12.9250 -12.9089 -10.2198 -10.1840  -1.6239  -1.3433
     0.5013   0.5407  10.1285  10.1695

     the Fermi energy is    -0.2441 ev

     WARNING: integrated charge=    16.00000174, expected=    16.00000000

!    total energy              =     -47.90263147 Ry
     estimated scf accuracy    <          9.3E-10 Ry
     smearing contrib. (-TS)   =       0.00000003 Ry
     internal energy E=F+TS    =     -47.90263149 Ry

     The total energy is F=E-TS. E is the sum of the following terms:
     one-electron contribution =    -523.27011991 Ry
     hartree contribution      =     265.25989949 Ry
     xc contribution           =     -16.69845383 Ry
     ewald contribution        =     226.80604275 Ry

     convergence has been achieved in  34 iterations

     negative rho (up, down):  1.785E-04 0.000E+00

     Forces acting on atoms (cartesian axes, Ry/au):

     atom    1 type  1   force =     0.00000000    0.00000000    0.00069257
     atom    2 type  1   force =     0.00000000    0.00000000    0.00036497
     atom    3 type  1   force =    -0.00000000   -0.00000000   -0.00069257
     atom    4 type  1   force =     0.00000000    0.00000000   -0.00036497

     Total force =     0.001107     Total SCF correction =     0.000120
     SCF correction compared to forces is large: reduce conv_thr to get better values


     Computing stress (Cartesian axis) and pressure


     negative rho (up, down):  1.785E-04 0.000E+00
          total   stress  (Ry/bohr**3)                   (kbar)     P=       11.67
   0.00012707   0.00000000   0.00000000           18.69        0.00        0.00
   0.00000000   0.00012707   0.00000000            0.00       18.69        0.00
   0.00000000   0.00000000  -0.00001618            0.00        0.00       -2.38


     BFGS Geometry Optimization
     Energy error            =      0.0E+00 Ry
     Gradient error          =      6.9E-04 Ry/Bohr
     Cell gradient error     =      1.9E+01 kbar

     number of scf cycles    =   1
     number of bfgs steps    =   0

     enthalpy           new  =     -47.9026314680 Ry

     new trust radius        =       0.0169249020 bohr
     new conv_thr            =       0.0000000010 Ry

     new unit-cell volume =    714.10214 a.u.^3 (   105.81902 Ang^3 )
     density =      0.75390 g/cm^3

CELL_PARAMETERS (alat=  4.65610675)
   1.003176826   0.000000000   0.000000000
  -0.501588413   0.868776616   0.000000000
   0.000000000   0.000000000   8.117194158

ATOMIC_POSITIONS (crystal)
C             0.0000000000        0.0000000000        0.4125183247
C             0.3333333330        0.6666666660        0.4125096567
C            -0.0000000000       -0.0000000000        0.5874816753
C             0.6666666660        0.3333333330        0.5874903433



     Writing config-only to output data dir ../tmp/gr.save/
     NEW-OLD atomic charge density approx. for the potential

     Check: negative core charge=   -0.000003

     negative rho (up, down):  1.685E-04 0.000E+00
     extrapolated charge   16.10118, renormalised to   16.00000

     total cpu time spent up to now is       14.0 secs

     Self-consistent Calculation

     iteration #  1     ecut=    60.00 Ry     beta= 0.70
     Davidson diagonalization with overlap
     c_bands:  1 eigenvalues not converged
     c_bands:  3 eigenvalues not converged
     c_bands:  1 eigenvalues not converged
     c_bands:  4 eigenvalues not converged
     c_bands:  2 eigenvalues not converged
     c_bands:  2 eigenvalues not converged
     c_bands:  2 eigenvalues not converged
     ethr =  1.00E-06,  avg # of iterations = 18.9

     total cpu time spent up to now is       15.0 secs

     total energy              =     -47.62226927 Ry
     estimated scf accuracy    <       0.24183729 Ry

     iteration #  2     ecut=    60.00 Ry     beta= 0.70
     Davidson diagonalization with overlap
     ethr =  1.51E-03,  avg # of iterations =  8.8

     total cpu time spent up to now is       15.4 secs

     total energy              =     -47.90562667 Ry
     estimated scf accuracy    <       0.31524622 Ry

     iteration #  3     ecut=    60.00 Ry     beta= 0.70
     Davidson diagonalization with overlap
     ethr =  1.51E-03,  avg # of iterations =  2.0

     total cpu time spent up to now is       15.7 secs

     total energy              =     -47.91850426 Ry
     estimated scf accuracy    <       0.05414750 Ry

     iteration #  4     ecut=    60.00 Ry     beta= 0.70
     Davidson diagonalization with overlap
     ethr =  3.38E-04,  avg # of iterations =  4.9

     total cpu time spent up to now is       16.0 secs

     total energy              =     -47.90992422 Ry
     estimated scf accuracy    <       0.02831973 Ry

     iteration #  5     ecut=    60.00 Ry     beta= 0.70
     Davidson diagonalization with overlap
     ethr =  1.77E-04,  avg # of iterations =  3.6

     total cpu time spent up to now is       16.3 secs

     total energy              =     -47.90736943 Ry
     estimated scf accuracy    <       0.01354244 Ry

     iteration #  6     ecut=    60.00 Ry     beta= 0.70
     Davidson diagonalization with overlap
     c_bands:  2 eigenvalues not converged
     ethr =  8.46E-05,  avg # of iterations =  9.0

     total cpu time spent up to now is       16.6 secs

     WARNING: integrated charge=    16.00000162, expected=    16.00000000

     total energy              =     -47.90613421 Ry
     estimated scf accuracy    <       0.00852332 Ry

     iteration #  7     ecut=    60.00 Ry     beta= 0.70
     Davidson diagonalization with overlap
     ethr =  5.33E-05,  avg # of iterations =  5.6

     total cpu time spent up to now is       16.9 secs

     WARNING: integrated charge=    16.00000166, expected=    16.00000000

     total energy              =     -47.90594263 Ry
     estimated scf accuracy    <       0.00594475 Ry

     iteration #  8     ecut=    60.00 Ry     beta= 0.70
     Davidson diagonalization with overlap
     ethr =  3.72E-05,  avg # of iterations =  1.4

     total cpu time spent up to now is       17.1 secs

     WARNING: integrated charge=    16.00000171, expected=    16.00000000

     total energy              =     -47.90543466 Ry
     estimated scf accuracy    <       0.00532889 Ry

     iteration #  9     ecut=    60.00 Ry     beta= 0.70
     Davidson diagonalization with overlap
     ethr =  3.33E-05,  avg # of iterations =  1.9

     negative rho (up, down):  4.305E-08 0.000E+00

     total cpu time spent up to now is       17.4 secs

     WARNING: integrated charge=    16.00000187, expected=    16.00000000

     total energy              =     -47.90374181 Ry
     estimated scf accuracy    <       0.00446032 Ry

     iteration # 10     ecut=    60.00 Ry     beta= 0.70
     Davidson diagonalization with overlap
     ethr =  2.79E-05,  avg # of iterations =  5.9

     negative rho (up, down):  1.811E-04 0.000E+00

     total cpu time spent up to now is       17.7 secs

     WARNING: integrated charge=    16.00000214, expected=    16.00000000

     total energy              =     -47.90266497 Ry
     estimated scf accuracy    <       0.00174125 Ry

     iteration # 11     ecut=    60.00 Ry     beta= 0.70
     Davidson diagonalization with overlap
     c_bands:  1 eigenvalues not converged
     c_bands:  1 eigenvalues not converged
     ethr =  1.09E-05,  avg # of iterations = 11.9

     negative rho (up, down):  1.782E-04 0.000E+00

     total cpu time spent up to now is       18.1 secs

     WARNING: integrated charge=    16.00000213, expected=    16.00000000

     total energy              =     -47.90291298 Ry
     estimated scf accuracy    <       0.00002465 Ry

     iteration # 12     ecut=    60.00 Ry     beta= 0.70
     Davidson diagonalization with overlap
     c_bands:  1 eigenvalues not converged
     ethr =  1.54E-07,  avg # of iterations = 12.6

     negative rho (up, down):  1.812E-04 0.000E+00

     total cpu time spent up to now is       18.6 secs

     WARNING: integrated charge=    16.00000214, expected=    16.00000000

     total energy              =     -47.90300141 Ry
     estimated scf accuracy    <       0.00000187 Ry

     iteration # 13     ecut=    60.00 Ry     beta= 0.70
     Davidson diagonalization with overlap
     ethr =  1.17E-08,  avg # of iterations =  5.4

     negative rho (up, down):  1.682E-04 0.000E+00

     total cpu time spent up to now is       19.0 secs

     WARNING: integrated charge=    16.00000213, expected=    16.00000000

     total energy              =     -47.90300472 Ry
     estimated scf accuracy    <       0.00000164 Ry

     iteration # 14     ecut=    60.00 Ry     beta= 0.70
     Davidson diagonalization with overlap
     ethr =  1.03E-08,  avg # of iterations =  1.1

     negative rho (up, down):  1.712E-04 0.000E+00

     total cpu time spent up to now is       19.2 secs

     WARNING: integrated charge=    16.00000206, expected=    16.00000000

     total energy              =     -47.90300547 Ry
     estimated scf accuracy    <       0.00000119 Ry

     iteration # 15     ecut=    60.00 Ry     beta= 0.70
     Davidson diagonalization with overlap
     ethr =  7.43E-09,  avg # of iterations =  4.6

     negative rho (up, down):  1.723E-04 0.000E+00

     total cpu time spent up to now is       19.6 secs

     WARNING: integrated charge=    16.00000210, expected=    16.00000000

     total energy              =     -47.90300717 Ry
     estimated scf accuracy    <       0.00000834 Ry

     iteration # 16     ecut=    60.00 Ry     beta= 0.70
     Davidson diagonalization with overlap
     ethr =  7.43E-09,  avg # of iterations =  3.0

     negative rho (up, down):  1.752E-04 0.000E+00

     total cpu time spent up to now is       19.9 secs

     WARNING: integrated charge=    16.00000210, expected=    16.00000000

     total energy              =     -47.90301460 Ry
     estimated scf accuracy    <       0.00000835 Ry

     iteration # 17     ecut=    60.00 Ry     beta= 0.70
     Davidson diagonalization with overlap
     ethr =  7.43E-09,  avg # of iterations =  5.5

     negative rho (up, down):  1.748E-04 0.000E+00

     total cpu time spent up to now is       20.3 secs

     WARNING: integrated charge=    16.00000210, expected=    16.00000000

     total energy              =     -47.90301675 Ry
     estimated scf accuracy    <       0.00003707 Ry

     iteration # 18     ecut=    60.00 Ry     beta= 0.70
     Davidson diagonalization with overlap
     ethr =  7.43E-09,  avg # of iterations =  1.6

     negative rho (up, down):  1.715E-04 0.000E+00

     total cpu time spent up to now is       20.5 secs

     WARNING: integrated charge=    16.00000210, expected=    16.00000000

     total energy              =     -47.90300703 Ry
     estimated scf accuracy    <       0.00003681 Ry

     iteration # 19     ecut=    60.00 Ry     beta= 0.70
     Davidson diagonalization with overlap
     ethr =  7.43E-09,  avg # of iterations =  4.0

     negative rho (up, down):  1.727E-04 0.000E+00

     total cpu time spent up to now is       20.8 secs

     WARNING: integrated charge=    16.00000210, expected=    16.00000000

     total energy              =     -47.90300467 Ry
     estimated scf accuracy    <       0.00001173 Ry

     iteration # 20     ecut=    60.00 Ry     beta= 0.70
     Davidson diagonalization with overlap
     ethr =  7.43E-09,  avg # of iterations =  4.0

     negative rho (up, down):  1.754E-04 0.000E+00

     total cpu time spent up to now is       21.1 secs

     WARNING: integrated charge=    16.00000211, expected=    16.00000000

     total energy              =     -47.90300392 Ry
     estimated scf accuracy    <       0.00000269 Ry

     iteration # 21     ecut=    60.00 Ry     beta= 0.70
     Davidson diagonalization with overlap
     ethr =  7.43E-09,  avg # of iterations =  3.8

     negative rho (up, down):  1.772E-04 0.000E+00

     total cpu time spent up to now is       21.4 secs

     WARNING: integrated charge=    16.00000211, expected=    16.00000000

     total energy              =     -47.90300457 Ry
     estimated scf accuracy    <       0.00000010 Ry

     iteration # 22     ecut=    60.00 Ry     beta= 0.70
     Davidson diagonalization with overlap
     ethr =  6.33E-10,  avg # of iterations =  5.1

     negative rho (up, down):  1.769E-04 0.000E+00

     total cpu time spent up to now is       21.8 secs

     WARNING: integrated charge=    16.00000211, expected=    16.00000000

     total energy              =     -47.90300468 Ry
     estimated scf accuracy    <       0.00000003 Ry

     iteration # 23     ecut=    60.00 Ry     beta= 0.70
     Davidson diagonalization with overlap
     ethr =  2.02E-10,  avg # of iterations =  3.4

     negative rho (up, down):  1.769E-04 0.000E+00

     total cpu time spent up to now is       22.1 secs

     WARNING: integrated charge=    16.00000211, expected=    16.00000000

     total energy              =     -47.90300469 Ry
     estimated scf accuracy    <       0.00000001 Ry

     iteration # 24     ecut=    60.00 Ry     beta= 0.70
     Davidson diagonalization with overlap
     ethr =  6.97E-11,  avg # of iterations =  3.5

     negative rho (up, down):  1.772E-04 0.000E+00

     total cpu time spent up to now is       22.4 secs

     WARNING: integrated charge=    16.00000211, expected=    16.00000000

     total energy              =     -47.90300468 Ry
     estimated scf accuracy    <          3.9E-09 Ry

     iteration # 25     ecut=    60.00 Ry     beta= 0.70
     Davidson diagonalization with overlap
     ethr =  2.46E-11,  avg # of iterations =  3.3

     negative rho (up, down):  1.772E-04 0.000E+00

     total cpu time spent up to now is       22.6 secs

     WARNING: integrated charge=    16.00000211, expected=    16.00000000

     total energy              =     -47.90300468 Ry
     estimated scf accuracy    <          1.5E-09 Ry

     iteration # 26     ecut=    60.00 Ry     beta= 0.70
     Davidson diagonalization with overlap
     ethr =  9.43E-12,  avg # of iterations =  4.0

     negative rho (up, down):  1.772E-04 0.000E+00

     total cpu time spent up to now is       22.9 secs

     End of self-consistent calculation

          k = 0.0000 0.0000 0.0000 (  5565 PWs)   bands (ev):

   -19.9876 -19.8747  -8.4809  -7.6456  -3.6277  -3.6277  -3.6217  -3.6217
     2.2559   2.6372   2.9583   4.6608

          k = 0.0000 0.1439 0.0000 (  5582 PWs)   bands (ev):

   -19.6207 -19.5105  -8.0372  -7.2149  -4.9916  -4.9752  -4.3164  -4.3047
     2.7601   3.1422   3.4586   4.7591

          k = 0.0000 0.2878 0.0000 (  5566 PWs)   bands (ev):

   -18.5296 -18.4274  -7.9655  -7.9304  -6.7330  -5.9557  -5.6016  -5.5853
     4.2691   4.6488   4.9584   6.2143

          k = 0.0000 0.4316 0.0000 (  5594 PWs)   bands (ev):

   -16.7536 -16.6644 -11.2139 -11.1600  -6.5936  -6.5753  -4.7076  -4.0444
     3.0617   3.4797   6.7513   7.0018

          k = 0.0000-0.5755 0.0000 (  5604 PWs)   bands (ev):

   -14.7794 -14.7384 -13.6863 -13.6545  -6.9509  -6.9321  -2.9911  -2.6967
     1.0266   1.3422   6.8181   6.9704

          k = 0.1246 0.2158 0.0000 (  5559 PWs)   bands (ev):

   -18.8917 -18.7868  -7.1619  -6.7744  -6.7594  -6.3680  -5.6853  -5.6747
     3.7672   4.1503   4.4595   5.7549

          k = 0.1246 0.3597 0.0000 (  5578 PWs)   bands (ev):

   -17.4569 -17.3625  -9.5395  -9.5004  -7.1851  -7.1617  -5.4757  -4.7526
     4.5329   4.8116   5.7718   6.1624

          k = 0.1246 0.5036 0.0000 (  5571 PWs)   bands (ev):

   -15.4055 -15.3283 -12.5073 -12.4498  -7.9467  -7.9185  -3.2940  -2.7830
     1.5554   1.9054   8.3485   8.5199

          k = 0.2492 0.4316 0.0000 (  5528 PWs)   bands (ev):

   -15.7286 -15.6472 -11.0498 -11.0226  -9.4253  -9.4051  -3.5126  -2.9033
     2.1877   2.4326   8.2374   8.5599

          k = 0.2492 0.5755 0.0000 (  5540 PWs)   bands (ev):

   -13.8357 -13.7987 -12.9243 -12.9084 -10.2101 -10.1743  -1.6597  -1.3775
     0.4513   0.4926  10.0640  10.1061

     the Fermi energy is    -0.2863 ev

     WARNING: integrated charge=    16.00000211, expected=    16.00000000

!    total energy              =     -47.90300468 Ry
     estimated scf accuracy    <          1.9E-10 Ry
     smearing contrib. (-TS)   =       0.00000003 Ry
     internal energy E=F+TS    =     -47.90300471 Ry

     The total energy is F=E-TS. E is the sum of the following terms:
     one-electron contribution =    -519.97351286 Ry
     hartree contribution      =     263.58983995 Ry
     xc contribution           =     -16.67066028 Ry
     ewald contribution        =     225.15132848 Ry

     convergence has been achieved in  26 iterations

     negative rho (up, down):  1.772E-04 0.000E+00

     Forces acting on atoms (cartesian axes, Ry/au):

     atom    1 type  1   force =     0.00000000    0.00000000    0.00058538
     atom    2 type  1   force =     0.00000000   -0.00000000    0.00046876
     atom    3 type  1   force =     0.00000000   -0.00000000   -0.00058538
     atom    4 type  1   force =     0.00000000    0.00000000   -0.00046876

     Total force =     0.001061     Total SCF correction =     0.000049


     Computing stress (Cartesian axis) and pressure


     negative rho (up, down):  1.772E-04 0.000E+00
          total   stress  (Ry/bohr**3)                   (kbar)     P=        2.88
   0.00003716   0.00000000   0.00000000            5.47        0.00        0.00
   0.00000000   0.00003716   0.00000000            0.00        5.47        0.00
   0.00000000   0.00000000  -0.00001559            0.00        0.00       -2.29

     Energy error            =      3.7E-04 Ry
     Gradient error          =      5.9E-04 Ry/Bohr
     Cell gradient error     =      5.5E+00 kbar

     number of scf cycles    =   2
     number of bfgs steps    =   1

     enthalpy           old  =     -47.9026314680 Ry
     enthalpy           new  =     -47.9030046789 Ry

     CASE: enthalpy          _new < enthalpy          _old

     new trust radius        =       0.0070727476 bohr
     new conv_thr            =            5.9E-11 Ry

     new unit-cell volume =    715.99342 a.u.^3 (   106.09928 Ang^3 )
     density =      0.75191 g/cm^3

CELL_PARAMETERS (alat=  4.65610675)
   1.004504391  -0.000000000   0.000000000
  -0.502252195   0.869926320   0.000000000
   0.000000000   0.000000000   8.117194158

ATOMIC_POSITIONS (crystal)
C             0.0000000000        0.0000000000        0.4125403215
C             0.3333333330        0.6666666660        0.4125272614
C            -0.0000000000       -0.0000000000        0.5874596785
C             0.6666666660        0.3333333330        0.5874727386



     Writing config-only to output data dir ../tmp/gr.save/
     NEW-OLD atomic charge density approx. for the potential

     Check: negative core charge=   -0.000003

     negative rho (up, down):  1.731E-04 0.000E+00
     extrapolated charge   16.04227, renormalised to   16.00000

     total cpu time spent up to now is       23.8 secs

     Self-consistent Calculation

     iteration #  1     ecut=    60.00 Ry     beta= 0.70
     Davidson diagonalization with overlap
     c_bands:  1 eigenvalues not converged
     c_bands:  1 eigenvalues not converged
     c_bands:  1 eigenvalues not converged
     c_bands:  1 eigenvalues not converged
     c_bands:  2 eigenvalues not converged
     c_bands:  1 eigenvalues not converged
     c_bands:  1 eigenvalues not converged
     ethr =  1.00E-06,  avg # of iterations = 17.4

     negative rho (up, down):  1.670E-04 0.000E+00

     total cpu time spent up to now is       24.5 secs

     total energy              =     -47.90064884 Ry
     estimated scf accuracy    <       0.00177471 Ry

     iteration #  2     ecut=    60.00 Ry     beta= 0.70
     Davidson diagonalization with overlap
     c_bands:  1 eigenvalues not converged
     c_bands:  2 eigenvalues not converged
     c_bands:  1 eigenvalues not converged
     c_bands:  2 eigenvalues not converged
     c_bands:  1 eigenvalues not converged
     ethr =  1.11E-05,  avg # of iterations = 15.2

     negative rho (up, down):  1.695E-04 0.000E+00

     total cpu time spent up to now is       25.1 secs

     WARNING: integrated charge=    16.00000177, expected=    16.00000000

     total energy              =     -47.90263769 Ry
     estimated scf accuracy    <       0.00705092 Ry

     iteration #  3     ecut=    60.00 Ry     beta= 0.70
     Davidson diagonalization with overlap
     c_bands:  1 eigenvalues not converged
     ethr =  1.11E-05,  avg # of iterations =  7.3

     negative rho (up, down):  1.708E-04 0.000E+00

     total cpu time spent up to now is       25.4 secs

     WARNING: integrated charge=    16.00000194, expected=    16.00000000

     total energy              =     -47.90298298 Ry
     estimated scf accuracy    <       0.00098964 Ry

     iteration #  4     ecut=    60.00 Ry     beta= 0.70
     Davidson diagonalization with overlap
     ethr =  6.19E-06,  avg # of iterations =  4.3

     negative rho (up, down):  1.722E-04 0.000E+00

     total cpu time spent up to now is       25.7 secs

     WARNING: integrated charge=    16.00000210, expected=    16.00000000

     total energy              =     -47.90296004 Ry
     estimated scf accuracy    <       0.00029728 Ry

     iteration #  5     ecut=    60.00 Ry     beta= 0.70
     Davidson diagonalization with overlap
     ethr =  1.86E-06,  avg # of iterations =  6.7

     negative rho (up, down):  1.727E-04 0.000E+00

     total cpu time spent up to now is       26.0 secs

     WARNING: integrated charge=    16.00000211, expected=    16.00000000

     total energy              =     -47.90301810 Ry
     estimated scf accuracy    <       0.00004584 Ry

     iteration #  6     ecut=    60.00 Ry     beta= 0.70
     Davidson diagonalization with overlap
     ethr =  2.86E-07,  avg # of iterations =  4.3

     negative rho (up, down):  1.727E-04 0.000E+00

     total cpu time spent up to now is       26.4 secs

     WARNING: integrated charge=    16.00000212, expected=    16.00000000

     total energy              =     -47.90304272 Ry
     estimated scf accuracy    <       0.00001607 Ry

     iteration #  7     ecut=    60.00 Ry     beta= 0.70
     Davidson diagonalization with overlap
     ethr =  1.00E-07,  avg # of iterations =  2.6

     negative rho (up, down):  1.740E-04 0.000E+00

     total cpu time spent up to now is       26.6 secs

     WARNING: integrated charge=    16.00000217, expected=    16.00000000

     total energy              =     -47.90304009 Ry
     estimated scf accuracy    <       0.00001271 Ry

     iteration #  8     ecut=    60.00 Ry     beta= 0.70
     Davidson diagonalization with overlap
     ethr =  7.94E-08,  avg # of iterations =  2.3

     negative rho (up, down):  1.756E-04 0.000E+00

     total cpu time spent up to now is       26.9 secs

     WARNING: integrated charge=    16.00000224, expected=    16.00000000

     total energy              =     -47.90303988 Ry
     estimated scf accuracy    <       0.00000306 Ry

     iteration #  9     ecut=    60.00 Ry     beta= 0.70
     Davidson diagonalization with overlap
     c_bands:  1 eigenvalues not converged
     ethr =  1.92E-08,  avg # of iterations =  7.3

     negative rho (up, down):  1.760E-04 0.000E+00

     total cpu time spent up to now is       27.3 secs

     WARNING: integrated charge=    16.00000226, expected=    16.00000000

     total energy              =     -47.90304580 Ry
     estimated scf accuracy    <       0.00000797 Ry

     iteration # 10     ecut=    60.00 Ry     beta= 0.70
     Davidson diagonalization with overlap
     ethr =  1.92E-08,  avg # of iterations =  2.1

     negative rho (up, down):  1.766E-04 0.000E+00

     total cpu time spent up to now is       27.5 secs

     WARNING: integrated charge=    16.00000227, expected=    16.00000000

     total energy              =     -47.90304351 Ry
     estimated scf accuracy    <       0.00001001 Ry

     iteration # 11     ecut=    60.00 Ry     beta= 0.70
     Davidson diagonalization with overlap
     ethr =  1.92E-08,  avg # of iterations =  1.1

     negative rho (up, down):  1.768E-04 0.000E+00

     total cpu time spent up to now is       27.8 secs

     WARNING: integrated charge=    16.00000227, expected=    16.00000000

     total energy              =     -47.90304311 Ry
     estimated scf accuracy    <       0.00000488 Ry

     iteration # 12     ecut=    60.00 Ry     beta= 0.70
     Davidson diagonalization with overlap
     ethr =  1.92E-08,  avg # of iterations =  1.0

     negative rho (up, down):  1.771E-04 0.000E+00

     total cpu time spent up to now is       28.0 secs

     WARNING: integrated charge=    16.00000227, expected=    16.00000000

     total energy              =     -47.90304268 Ry
     estimated scf accuracy    <       0.00000338 Ry

     iteration # 13     ecut=    60.00 Ry     beta= 0.70
     Davidson diagonalization with overlap
     ethr =  1.92E-08,  avg # of iterations =  1.0

     negative rho (up, down):  1.768E-04 0.000E+00

     total cpu time spent up to now is       28.3 secs

     WARNING: integrated charge=    16.00000227, expected=    16.00000000

     total energy              =     -47.90304301 Ry
     estimated scf accuracy    <       0.00000212 Ry

     iteration # 14     ecut=    60.00 Ry     beta= 0.70
     Davidson diagonalization with overlap
     ethr =  1.33E-08,  avg # of iterations =  1.0

     negative rho (up, down):  1.769E-04 0.000E+00

     total cpu time spent up to now is       28.5 secs

     WARNING: integrated charge=    16.00000227, expected=    16.00000000

     total energy              =     -47.90304264 Ry
     estimated scf accuracy    <       0.00000252 Ry

     iteration # 15     ecut=    60.00 Ry     beta= 0.70
     Davidson diagonalization with overlap
     ethr =  1.33E-08,  avg # of iterations =  1.1

     negative rho (up, down):  1.777E-04 0.000E+00

     total cpu time spent up to now is       28.8 secs

     WARNING: integrated charge=    16.00000228, expected=    16.00000000

     total energy              =     -47.90304153 Ry
     estimated scf accuracy    <       0.00000144 Ry

     iteration # 16     ecut=    60.00 Ry     beta= 0.70
     Davidson diagonalization with overlap
     ethr =  8.99E-09,  avg # of iterations =  4.2

     negative rho (up, down):  1.783E-04 0.000E+00

     total cpu time spent up to now is       29.1 secs

     WARNING: integrated charge=    16.00000228, expected=    16.00000000

     total energy              =     -47.90304486 Ry
     estimated scf accuracy    <       0.00000358 Ry

     iteration # 17     ecut=    60.00 Ry     beta= 0.70
     Davidson diagonalization with overlap
     ethr =  8.99E-09,  avg # of iterations =  2.0

     negative rho (up, down):  1.779E-04 0.000E+00

     total cpu time spent up to now is       29.3 secs

     WARNING: integrated charge=    16.00000228, expected=    16.00000000

     total energy              =     -47.90304389 Ry
     estimated scf accuracy    <       0.00000811 Ry

     iteration # 18     ecut=    60.00 Ry     beta= 0.70
     Davidson diagonalization with overlap
     ethr =  8.99E-09,  avg # of iterations =  1.0

     negative rho (up, down):  1.757E-04 0.000E+00

     total cpu time spent up to now is       29.6 secs

     WARNING: integrated charge=    16.00000228, expected=    16.00000000

     total energy              =     -47.90304048 Ry
     estimated scf accuracy    <       0.00000533 Ry

     iteration # 19     ecut=    60.00 Ry     beta= 0.70
     Davidson diagonalization with overlap
     ethr =  8.99E-09,  avg # of iterations =  4.0

     negative rho (up, down):  1.766E-04 0.000E+00

     total cpu time spent up to now is       29.9 secs

     WARNING: integrated charge=    16.00000228, expected=    16.00000000

     total energy              =     -47.90304219 Ry
     estimated scf accuracy    <       0.00000207 Ry

     iteration # 20     ecut=    60.00 Ry     beta= 0.70
     Davidson diagonalization with overlap
     ethr =  8.99E-09,  avg # of iterations =  2.4

     negative rho (up, down):  1.766E-04 0.000E+00

     total cpu time spent up to now is       30.2 secs

     WARNING: integrated charge=    16.00000228, expected=    16.00000000

     total energy              =     -47.90304255 Ry
     estimated scf accuracy    <       0.00000003 Ry

     iteration # 21     ecut=    60.00 Ry     beta= 0.70
     Davidson diagonalization with overlap
     ethr =  1.57E-10,  avg # of iterations =  6.9

     negative rho (up, down):  1.765E-04 0.000E+00

     total cpu time spent up to now is       30.6 secs

     WARNING: integrated charge=    16.00000228, expected=    16.00000000

     total energy              =     -47.90304265 Ry
     estimated scf accuracy    <       0.00000002 Ry

     iteration # 22     ecut=    60.00 Ry     beta= 0.70
     Davidson diagonalization with overlap
     ethr =  1.51E-10,  avg # of iterations =  1.0

     negative rho (up, down):  1.764E-04 0.000E+00

     total cpu time spent up to now is       30.9 secs

     WARNING: integrated charge=    16.00000228, expected=    16.00000000

     total energy              =     -47.90304266 Ry
     estimated scf accuracy    <          8.9E-09 Ry

     iteration # 23     ecut=    60.00 Ry     beta= 0.70
     Davidson diagonalization with overlap
     ethr =  5.58E-11,  avg # of iterations =  3.6

     negative rho (up, down):  1.764E-04 0.000E+00

     total cpu time spent up to now is       31.2 secs

     WARNING: integrated charge=    16.00000228, expected=    16.00000000

     total energy              =     -47.90304266 Ry
     estimated scf accuracy    <          9.2E-10 Ry

     iteration # 24     ecut=    60.00 Ry     beta= 0.70
     Davidson diagonalization with overlap
     ethr =  5.76E-12,  avg # of iterations =  5.4

     negative rho (up, down):  1.764E-04 0.000E+00

     total cpu time spent up to now is       31.6 secs

     WARNING: integrated charge=    16.00000228, expected=    16.00000000

     total energy              =     -47.90304266 Ry
     estimated scf accuracy    <          1.8E-09 Ry

     iteration # 25     ecut=    60.00 Ry     beta= 0.70
     Davidson diagonalization with overlap
     ethr =  5.76E-12,  avg # of iterations =  1.5

     negative rho (up, down):  1.764E-04 0.000E+00

     total cpu time spent up to now is       31.8 secs

     WARNING: integrated charge=    16.00000228, expected=    16.00000000

     total energy              =     -47.90304266 Ry
     estimated scf accuracy    <          1.7E-09 Ry

     iteration # 26     ecut=    60.00 Ry     beta= 0.70
     Davidson diagonalization with overlap
     ethr =  5.76E-12,  avg # of iterations =  1.0

     negative rho (up, down):  1.764E-04 0.000E+00

     total cpu time spent up to now is       32.1 secs

     WARNING: integrated charge=    16.00000228, expected=    16.00000000

     total energy              =     -47.90304266 Ry
     estimated scf accuracy    <          1.3E-09 Ry

     iteration # 27     ecut=    60.00 Ry     beta= 0.70
     Davidson diagonalization with overlap
     ethr =  5.76E-12,  avg # of iterations =  1.8

     negative rho (up, down):  1.765E-04 0.000E+00

     total cpu time spent up to now is       32.3 secs

     WARNING: integrated charge=    16.00000228, expected=    16.00000000

     total energy              =     -47.90304263 Ry
     estimated scf accuracy    <          2.6E-10 Ry

     iteration # 28     ecut=    60.00 Ry     beta= 0.70
     Davidson diagonalization with overlap
     ethr =  1.63E-12,  avg # of iterations =  6.5

     negative rho (up, down):  1.765E-04 0.000E+00

     total cpu time spent up to now is       32.7 secs

     WARNING: integrated charge=    16.00000228, expected=    16.00000000

     total energy              =     -47.90304263 Ry
     estimated scf accuracy    <          7.6E-09 Ry

     iteration # 29     ecut=    60.00 Ry     beta= 0.70
     Davidson diagonalization with overlap
     ethr =  1.63E-12,  avg # of iterations =  2.0

     negative rho (up, down):  1.765E-04 0.000E+00

     total cpu time spent up to now is       33.0 secs

     WARNING: integrated charge=    16.00000228, expected=    16.00000000

     total energy              =     -47.90304265 Ry
     estimated scf accuracy    <          5.7E-09 Ry

     iteration # 30     ecut=    60.00 Ry     beta= 0.70
     Davidson diagonalization with overlap
     ethr =  1.63E-12,  avg # of iterations =  4.0

     negative rho (up, down):  1.765E-04 0.000E+00

     total cpu time spent up to now is       33.3 secs

     WARNING: integrated charge=    16.00000228, expected=    16.00000000

     total energy              =     -47.90304265 Ry
     estimated scf accuracy    <          1.6E-09 Ry

     iteration # 31     ecut=    60.00 Ry     beta= 0.70
     Davidson diagonalization with overlap
     ethr =  1.63E-12,  avg # of iterations =  1.7

     negative rho (up, down):  1.765E-04 0.000E+00

     total cpu time spent up to now is       33.6 secs

     WARNING: integrated charge=    16.00000228, expected=    16.00000000

     total energy              =     -47.90304263 Ry
     estimated scf accuracy    <          8.9E-10 Ry

     iteration # 32     ecut=    60.00 Ry     beta= 0.70
     Davidson diagonalization with overlap
     ethr =  1.63E-12,  avg # of iterations =  3.6

     negative rho (up, down):  1.764E-04 0.000E+00

     total cpu time spent up to now is       33.8 secs

     WARNING: integrated charge=    16.00000228, expected=    16.00000000

     total energy              =     -47.90304266 Ry
     estimated scf accuracy    <          5.4E-10 Ry

     iteration # 33     ecut=    60.00 Ry     beta= 0.70
     Davidson diagonalization with overlap
     ethr =  1.63E-12,  avg # of iterations =  4.1

     negative rho (up, down):  1.765E-04 0.000E+00

     total cpu time spent up to now is       34.2 secs

     End of self-consistent calculation

          k = 0.0000 0.0000 0.0000 (  5565 PWs)   bands (ev):

   -19.9738 -19.8605  -8.4732  -7.6358  -3.6463  -3.6463  -3.6402  -3.6402
     2.2561   2.6377   2.9581   4.2579

          k = 0.0000 0.1437 0.0000 (  5582 PWs)   bands (ev):

   -19.6077 -19.4971  -8.0309  -7.2066  -5.0081  -4.9915  -4.3322  -4.3204
     2.7589   3.1414   3.4571   4.7560

          k = 0.0000 0.2874 0.0000 (  5566 PWs)   bands (ev):

   -18.5192 -18.4165  -7.9763  -7.9410  -6.7309  -5.9516  -5.6126  -5.5961
     4.2637   4.6436   4.9529   6.2047

          k = 0.0000 0.4311 0.0000 (  5594 PWs)   bands (ev):

   -16.7477 -16.6581 -11.2173 -11.1631  -6.6011  -6.5826  -4.7122  -4.0475
     3.0327   3.4509   6.7363   6.9502

          k =-0.0000-0.5748 0.0000 (  5604 PWs)   bands (ev):

   -14.7830 -14.7419 -13.6788 -13.6469  -6.9572  -6.9382  -3.0018  -2.7064
     1.0073   1.3224   6.7611   6.9137

          k = 0.1244 0.2155 0.0000 (  5559 PWs)   bands (ev):

   -18.8804 -18.7751  -7.1584  -6.7886  -6.7735  -6.3626  -5.6957  -5.6850
     3.7633   4.1467   4.4554   5.7499

          k = 0.1244 0.3592 0.0000 (  5578 PWs)   bands (ev):

   -17.4491 -17.3543  -9.5478  -9.5085  -7.1912  -7.1676  -5.4777  -4.7529
     4.4967   4.7758   5.7623   6.1529

          k = 0.1244 0.5029 0.0000 (  5571 PWs)   bands (ev):

   -15.4037 -15.3262 -12.5073 -12.4496  -7.9510  -7.9226  -3.3035  -2.7914
     1.5320   1.8820   8.2900   8.4628

          k = 0.2489 0.4311 0.0000 (  5528 PWs)   bands (ev):

   -15.7253 -15.6436 -11.0580 -11.0307  -9.4226  -9.4022  -3.5212  -2.9105
     2.1596   2.4053   8.2206   8.5426

          k = 0.2489 0.5748 0.0000 (  5540 PWs)   bands (ev):

   -13.8405 -13.8032 -12.9240 -12.9083 -10.2059 -10.1701  -1.6748  -1.3917
     0.4305   0.4726  10.0368  10.0797

     the Fermi energy is    -0.3038 ev

     WARNING: integrated charge=    16.00000228, expected=    16.00000000

!    total energy              =     -47.90304263 Ry
     estimated scf accuracy    <          3.5E-12 Ry
     smearing contrib. (-TS)   =       0.00000003 Ry
     internal energy E=F+TS    =     -47.90304266 Ry

     The total energy is F=E-TS. E is the sum of the following terms:
     one-electron contribution =    -518.66344425 Ry
     hartree contribution      =     262.92571009 Ry
     xc contribution           =     -16.65911167 Ry
     ewald contribution        =     224.49380317 Ry

     convergence has been achieved in  33 iterations

     negative rho (up, down):  1.765E-04 0.000E+00

     Forces acting on atoms (cartesian axes, Ry/au):

     atom    1 type  1   force =    -0.00000000   -0.00000000    0.00051432
     atom    2 type  1   force =     0.00000000    0.00000000    0.00050538
     atom    3 type  1   force =    -0.00000000    0.00000000   -0.00051432
     atom    4 type  1   force =     0.00000000    0.00000000   -0.00050538

     Total force =     0.001020     Total SCF correction =     0.000007


     Computing stress (Cartesian axis) and pressure


     negative rho (up, down):  1.765E-04 0.000E+00
          total   stress  (Ry/bohr**3)                   (kbar)     P=       -0.72
   0.00000036   0.00000000   0.00000000            0.05        0.00        0.00
   0.00000000   0.00000036   0.00000000            0.00        0.05        0.00
   0.00000000   0.00000000  -0.00001550            0.00        0.00       -2.28

     Energy error            =      3.8E-05 Ry
     Gradient error          =      5.1E-04 Ry/Bohr
     Cell gradient error     =      5.3E-02 kbar

     number of scf cycles    =   3
     number of bfgs steps    =   2

     enthalpy           old  =     -47.9030046789 Ry
     enthalpy           new  =     -47.9030426285 Ry

     CASE: enthalpy          _new < enthalpy          _old

     new trust radius        =       0.0005482778 bohr
     new conv_thr            =            3.8E-11 Ry

     new unit-cell volume =    716.05256 a.u.^3 (   106.10804 Ang^3 )
     density =      0.75185 g/cm^3

CELL_PARAMETERS (alat=  4.65610675)
   1.004545877  -0.000000000   0.000000000
  -0.502272938   0.869962248   0.000000000
   0.000000000   0.000000000   8.117194158

ATOMIC_POSITIONS (crystal)
C             0.0000000000        0.0000000000        0.4125548283
C             0.3333333330        0.6666666660        0.4125414214
C            -0.0000000000       -0.0000000000        0.5874451717
C             0.6666666660        0.3333333330        0.5874585786



     Writing config-only to output data dir ../tmp/gr.save/
     NEW-OLD atomic charge density approx. for the potential

     Check: negative core charge=   -0.000003

     negative rho (up, down):  1.765E-04 0.000E+00
     extrapolated charge   16.00132, renormalised to   16.00000

     total cpu time spent up to now is       35.0 secs

     Self-consistent Calculation

     iteration #  1     ecut=    60.00 Ry     beta= 0.70
     Davidson diagonalization with overlap
     ethr =  1.00E-06,  avg # of iterations =  2.0

     Threshold (ethr) on eigenvalues was too large:
     Diagonalizing with lowered threshold

     Davidson diagonalization with overlap
     ethr =  2.27E-08,  avg # of iterations =  4.0

     negative rho (up, down):  1.762E-04 0.000E+00

     total cpu time spent up to now is       35.5 secs

     WARNING: integrated charge=    16.00000160, expected=    16.00000000

     total energy              =     -47.90304119 Ry
     estimated scf accuracy    <       0.00000152 Ry

     iteration #  2     ecut=    60.00 Ry     beta= 0.70
     Davidson diagonalization with overlap
     ethr =  9.53E-09,  avg # of iterations =  5.4

     negative rho (up, down):  1.763E-04 0.000E+00

     total cpu time spent up to now is       35.9 secs

     WARNING: integrated charge=    16.00000175, expected=    16.00000000

     total energy              =     -47.90304344 Ry
     estimated scf accuracy    <       0.00000762 Ry

     iteration #  3     ecut=    60.00 Ry     beta= 0.70
     Davidson diagonalization with overlap
     ethr =  9.53E-09,  avg # of iterations =  3.0

     negative rho (up, down):  1.762E-04 0.000E+00

     total cpu time spent up to now is       36.2 secs

     WARNING: integrated charge=    16.00000205, expected=    16.00000000

     total energy              =     -47.90304338 Ry
     estimated scf accuracy    <       0.00000146 Ry

     iteration #  4     ecut=    60.00 Ry     beta= 0.70
     Davidson diagonalization with overlap
     ethr =  9.15E-09,  avg # of iterations =  2.6

     negative rho (up, down):  1.762E-04 0.000E+00

     total cpu time spent up to now is       36.5 secs

     WARNING: integrated charge=    16.00000223, expected=    16.00000000

     total energy              =     -47.90304367 Ry
     estimated scf accuracy    <       0.00000006 Ry

     iteration #  5     ecut=    60.00 Ry     beta= 0.70
     Davidson diagonalization with overlap
     ethr =  4.03E-10,  avg # of iterations =  7.2

     negative rho (up, down):  1.763E-04 0.000E+00

     total cpu time spent up to now is       36.9 secs

     WARNING: integrated charge=    16.00000222, expected=    16.00000000

     total energy              =     -47.90304382 Ry
     estimated scf accuracy    <       0.00000004 Ry

     iteration #  6     ecut=    60.00 Ry     beta= 0.70
     Davidson diagonalization with overlap
     ethr =  2.43E-10,  avg # of iterations =  1.8

     negative rho (up, down):  1.764E-04 0.000E+00

     total cpu time spent up to now is       37.2 secs

     WARNING: integrated charge=    16.00000228, expected=    16.00000000

     total energy              =     -47.90304379 Ry
     estimated scf accuracy    <       0.00000002 Ry

     iteration #  7     ecut=    60.00 Ry     beta= 0.70
     Davidson diagonalization with overlap
     ethr =  1.31E-10,  avg # of iterations =  3.9

     negative rho (up, down):  1.764E-04 0.000E+00

     total cpu time spent up to now is       37.5 secs

     WARNING: integrated charge=    16.00000228, expected=    16.00000000

     total energy              =     -47.90304380 Ry
     estimated scf accuracy    <          5.3E-09 Ry

     iteration #  8     ecut=    60.00 Ry     beta= 0.70
     Davidson diagonalization with overlap
     ethr =  3.28E-11,  avg # of iterations =  3.0

     negative rho (up, down):  1.763E-04 0.000E+00

     total cpu time spent up to now is       37.7 secs

     WARNING: integrated charge=    16.00000228, expected=    16.00000000

     total energy              =     -47.90304380 Ry
     estimated scf accuracy    <          6.4E-10 Ry

     iteration #  9     ecut=    60.00 Ry     beta= 0.70
     Davidson diagonalization with overlap
     ethr =  3.98E-12,  avg # of iterations =  5.6

     negative rho (up, down):  1.763E-04 0.000E+00

     total cpu time spent up to now is       38.1 secs

     End of self-consistent calculation

          k = 0.0000 0.0000 0.0000 (  5565 PWs)   bands (ev):

   -19.9735 -19.8600  -8.4733  -7.6352  -3.6469  -3.6469  -3.6408  -3.6408
     2.2563   2.6383   2.9574   4.2585

          k = 0.0000 0.1437 0.0000 (  5582 PWs)   bands (ev):

   -19.6074 -19.4966  -8.0310  -7.2060  -5.0087  -4.9921  -4.3327  -4.3209
     2.7591   3.1419   3.4564   4.7566

          k = 0.0000 0.2874 0.0000 (  5566 PWs)   bands (ev):

   -18.5189 -18.4162  -7.9767  -7.9413  -6.7311  -5.9512  -5.6129  -5.5965
     4.2638   4.6440   4.9520   6.2047

          k = 0.0000 0.4311 0.0000 (  5594 PWs)   bands (ev):

   -16.7476 -16.6579 -11.2175 -11.1632  -6.6014  -6.5829  -4.7126  -4.0473
     3.0316   3.4502   6.7360   6.9483

          k =-0.0000-0.5747 0.0000 (  5604 PWs)   bands (ev):

   -14.7832 -14.7420 -13.6786 -13.6467  -6.9574  -6.9384  -3.0023  -2.7066
     1.0066   1.3219   6.7592   6.9120

          k = 0.1244 0.2155 0.0000 (  5559 PWs)   bands (ev):

   -18.8801 -18.7747  -7.1587  -6.7890  -6.7739  -6.3621  -5.6961  -5.6854
     3.7634   4.1471   4.4546   5.7504

          k = 0.1244 0.3592 0.0000 (  5578 PWs)   bands (ev):

   -17.4490 -17.3540  -9.5482  -9.5087  -7.1914  -7.1678  -5.4780  -4.7526
     4.4954   4.7748   5.7622   6.1531

          k = 0.1244 0.5029 0.0000 (  5571 PWs)   bands (ev):

   -15.4037 -15.3261 -12.5074 -12.4496  -7.9512  -7.9227  -3.3041  -2.7914
     1.5311   1.8814   8.2880   8.4611

          k = 0.2489 0.4311 0.0000 (  5528 PWs)   bands (ev):

   -15.7253 -15.6435 -11.0584 -11.0310  -9.4225  -9.4022  -3.5218  -2.9105
     2.1586   2.4045   8.2203   8.5424

          k = 0.2489 0.5747 0.0000 (  5540 PWs)   bands (ev):

   -13.8407 -13.8034 -12.9240 -12.9083 -10.2059 -10.1700  -1.6755  -1.3920
     0.4298   0.4721  10.0359  10.0791

     the Fermi energy is    -0.3043 ev

     WARNING: integrated charge=    16.00000229, expected=    16.00000000

!    total energy              =     -47.90304380 Ry
     estimated scf accuracy    <          1.2E-11 Ry
     smearing contrib. (-TS)   =       0.00000003 Ry
     internal energy E=F+TS    =     -47.90304383 Ry

     The total energy is F=E-TS. E is the sum of the following terms:
     one-electron contribution =    -518.67980692 Ry
     hartree contribution      =     262.93361995 Ry
     xc contribution           =     -16.65876621 Ry
     ewald contribution        =     224.50190934 Ry

     convergence has been achieved in   9 iterations

     negative rho (up, down):  1.763E-04 0.000E+00

     Forces acting on atoms (cartesian axes, Ry/au):

     atom    1 type  1   force =     0.00000000    0.00000000    0.00050666
     atom    2 type  1   force =     0.00000000    0.00000000    0.00050456
     atom    3 type  1   force =     0.00000000    0.00000000   -0.00050666
     atom    4 type  1   force =     0.00000000    0.00000000   -0.00050456

     Total force =     0.001011     Total SCF correction =     0.000005


     Computing stress (Cartesian axis) and pressure


     negative rho (up, down):  1.763E-04 0.000E+00
          total   stress  (Ry/bohr**3)                   (kbar)     P=       -0.83
  -0.00000078  -0.00000000   0.00000000           -0.11       -0.00        0.00
  -0.00000000  -0.00000078   0.00000000           -0.00       -0.11        0.00
   0.00000000   0.00000000  -0.00001542            0.00        0.00       -2.27

     Energy error            =      1.2E-06 Ry
     Gradient error          =      5.1E-04 Ry/Bohr
     Cell gradient error     =      1.1E-01 kbar

     number of scf cycles    =   4
     number of bfgs steps    =   3

     enthalpy           old  =     -47.9030426285 Ry
     enthalpy           new  =     -47.9030438003 Ry

     CASE: enthalpy          _new < enthalpy          _old


     WARNING: bfgs curvature condition failed, Theta= 0.858
     new trust radius        =       0.0006031056 bohr
     new conv_thr            =            1.0E-11 Ry

     new unit-cell volume =    716.08791 a.u.^3 (   106.11328 Ang^3 )
     density =      0.75181 g/cm^3

CELL_PARAMETERS (alat=  4.65610675)
   1.004570674  -0.000000000   0.000000000
  -0.502285337   0.869983724   0.000000000
   0.000000000   0.000000000   8.117194158

ATOMIC_POSITIONS (crystal)
C             0.0000000000        0.0000000000        0.4125707858
C             0.3333333330        0.6666666660        0.4125571094
C            -0.0000000000       -0.0000000000        0.5874292142
C             0.6666666660        0.3333333330        0.5874428906



     Writing config-only to output data dir ../tmp/gr.save/
     NEW-OLD atomic charge density approx. for the potential

     Check: negative core charge=   -0.000003

     negative rho (up, down):  1.765E-04 0.000E+00
     extrapolated charge   16.00079, renormalised to   16.00000

     total cpu time spent up to now is       39.0 secs

     Self-consistent Calculation

     iteration #  1     ecut=    60.00 Ry     beta= 0.70
     Davidson diagonalization with overlap
     ethr =  1.00E-06,  avg # of iterations =  2.0

     Threshold (ethr) on eigenvalues was too large:
     Diagonalizing with lowered threshold

     Davidson diagonalization with overlap
     ethr =  1.30E-08,  avg # of iterations =  4.5

     negative rho (up, down):  1.762E-04 0.000E+00

     total cpu time spent up to now is       39.5 secs

     WARNING: integrated charge=    16.00000161, expected=    16.00000000

     total energy              =     -47.90304438 Ry
     estimated scf accuracy    <       0.00000044 Ry

     iteration #  2     ecut=    60.00 Ry     beta= 0.70
     Davidson diagonalization with overlap
     ethr =  2.73E-09,  avg # of iterations =  5.8

     negative rho (up, down):  1.762E-04 0.000E+00

     total cpu time spent up to now is       39.9 secs

     WARNING: integrated charge=    16.00000175, expected=    16.00000000

     total energy              =     -47.90304501 Ry
     estimated scf accuracy    <       0.00000184 Ry

     iteration #  3     ecut=    60.00 Ry     beta= 0.70
     Davidson diagonalization with overlap
     ethr =  2.73E-09,  avg # of iterations =  2.4

     negative rho (up, down):  1.761E-04 0.000E+00

     total cpu time spent up to now is       40.2 secs

     WARNING: integrated charge=    16.00000212, expected=    16.00000000

     total energy              =     -47.90304492 Ry
     estimated scf accuracy    <       0.00000043 Ry

     iteration #  4     ecut=    60.00 Ry     beta= 0.70
     Davidson diagonalization with overlap
     ethr =  2.68E-09,  avg # of iterations =  3.4

     negative rho (up, down):  1.762E-04 0.000E+00

     total cpu time spent up to now is       40.5 secs

     WARNING: integrated charge=    16.00000230, expected=    16.00000000

     total energy              =     -47.90304507 Ry
     estimated scf accuracy    <          8.9E-09 Ry

     iteration #  5     ecut=    60.00 Ry     beta= 0.70
     Davidson diagonalization with overlap
     ethr =  5.58E-11,  avg # of iterations =  7.9

     negative rho (up, down):  1.762E-04 0.000E+00

     total cpu time spent up to now is       41.0 secs

     WARNING: integrated charge=    16.00000225, expected=    16.00000000

     total energy              =     -47.90304510 Ry
     estimated scf accuracy    <          1.6E-09 Ry

     iteration #  6     ecut=    60.00 Ry     beta= 0.70
     Davidson diagonalization with overlap
     ethr =  9.85E-12,  avg # of iterations =  4.2

     negative rho (up, down):  1.762E-04 0.000E+00

     total cpu time spent up to now is       41.3 secs

     WARNING: integrated charge=    16.00000228, expected=    16.00000000

     total energy              =     -47.90304510 Ry
     estimated scf accuracy    <          3.1E-10 Ry

     iteration #  7     ecut=    60.00 Ry     beta= 0.70
     Davidson diagonalization with overlap
     ethr =  1.94E-12,  avg # of iterations =  6.2

     negative rho (up, down):  1.762E-04 0.000E+00

     total cpu time spent up to now is       41.8 secs

     WARNING: integrated charge=    16.00000230, expected=    16.00000000

     total energy              =     -47.90304510 Ry
     estimated scf accuracy    <          5.8E-09 Ry

     iteration #  8     ecut=    60.00 Ry     beta= 0.70
     Davidson diagonalization with overlap
     ethr =  1.94E-12,  avg # of iterations =  4.8

     negative rho (up, down):  1.762E-04 0.000E+00

     total cpu time spent up to now is       42.1 secs

     WARNING: integrated charge=    16.00000229, expected=    16.00000000

     total energy              =     -47.90304510 Ry
     estimated scf accuracy    <          9.6E-11 Ry

     iteration #  9     ecut=    60.00 Ry     beta= 0.70
     Davidson diagonalization with overlap
     ethr =  6.00E-13,  avg # of iterations =  3.2

     negative rho (up, down):  1.762E-04 0.000E+00

     total cpu time spent up to now is       42.4 secs

     End of self-consistent calculation

          k = 0.0000 0.0000 0.0000 (  5565 PWs)   bands (ev):

   -19.9733 -19.8597  -8.4736  -7.6347  -3.6473  -3.6473  -3.6412  -3.6412
     2.2572   2.6393   2.9576   4.2597

          k = 0.0000 0.1437 0.0000 (  5582 PWs)   bands (ev):

   -19.6072 -19.4963  -8.0313  -7.2055  -5.0090  -4.9924  -4.3330  -4.3212
     2.7599   3.1429   3.4565   4.7578

          k = 0.0000 0.2874 0.0000 (  5566 PWs)   bands (ev):

   -18.5188 -18.4159  -7.9769  -7.9415  -6.7315  -5.9508  -5.6132  -5.5967
     4.2644   4.6449   4.9522   6.2056

          k = 0.0000 0.4310 0.0000 (  5594 PWs)   bands (ev):

   -16.7475 -16.6577 -11.2176 -11.1632  -6.6016  -6.5830  -4.7130  -4.0471
     3.0308   3.4498   6.7363   6.9471

          k =-0.0000-0.5747 0.0000 (  5604 PWs)   bands (ev):

   -14.7833 -14.7420 -13.6785 -13.6465  -6.9576  -6.9385  -3.0027  -2.7067
     1.0061   1.3216   6.7580   6.9110

          k = 0.1244 0.2155 0.0000 (  5559 PWs)   bands (ev):

   -18.8800 -18.7744  -7.1589  -6.7893  -6.7742  -6.3616  -5.6963  -5.6856
     3.7641   4.1480   4.4548   5.7516

          k = 0.1244 0.3592 0.0000 (  5578 PWs)   bands (ev):

   -17.4489 -17.3538  -9.5484  -9.5089  -7.1916  -7.1679  -5.4784  -4.7523
     4.4946   4.7742   5.7627   6.1538

          k = 0.1244 0.5029 0.0000 (  5571 PWs)   bands (ev):

   -15.4037 -15.3261 -12.5074 -12.4496  -7.9513  -7.9228  -3.3045  -2.7914
     1.5305   1.8811   8.2868   8.4601

          k = 0.2489 0.4310 0.0000 (  5528 PWs)   bands (ev):

   -15.7253 -15.6434 -11.0585 -11.0311  -9.4225  -9.4021  -3.5222  -2.9103
     2.1579   2.4041   8.2205   8.5427

          k = 0.2489 0.5747 0.0000 (  5540 PWs)   bands (ev):

   -13.8408 -13.8035 -12.9240 -12.9083 -10.2058 -10.1699  -1.6760  -1.3922
     0.4294   0.4717  10.0353  10.0788

     the Fermi energy is    -0.3046 ev

     WARNING: integrated charge=    16.00000229, expected=    16.00000000

!    total energy              =     -47.90304510 Ry
     estimated scf accuracy    <          2.8E-12 Ry
     smearing contrib. (-TS)   =       0.00000003 Ry
     internal energy E=F+TS    =     -47.90304513 Ry

     The total energy is F=E-TS. E is the sum of the following terms:
     one-electron contribution =    -518.71982364 Ry
     hartree contribution      =     262.95345251 Ry
     xc contribution           =     -16.65856507 Ry
     ewald contribution        =     224.52189107 Ry

     convergence has been achieved in   9 iterations

     negative rho (up, down):  1.762E-04 0.000E+00

     Forces acting on atoms (cartesian axes, Ry/au):

     atom    1 type  1   force =     0.00000000    0.00000000    0.00050146
     atom    2 type  1   force =     0.00000000   -0.00000000    0.00050801
     atom    3 type  1   force =     0.00000000    0.00000000   -0.00050146
     atom    4 type  1   force =     0.00000000    0.00000000   -0.00050801

     Total force =     0.001009     Total SCF correction =     0.000007


     Computing stress (Cartesian axis) and pressure


     negative rho (up, down):  1.762E-04 0.000E+00
          total   stress  (Ry/bohr**3)                   (kbar)     P=       -0.90
  -0.00000147  -0.00000000   0.00000000           -0.22       -0.00        0.00
  -0.00000000  -0.00000147   0.00000000           -0.00       -0.22        0.00
   0.00000000   0.00000000  -0.00001537            0.00        0.00       -2.26

     Energy error            =      1.3E-06 Ry
     Gradient error          =      5.1E-04 Ry/Bohr
     Cell gradient error     =      2.2E-01 kbar

     number of scf cycles    =   5
     number of bfgs steps    =   4

     enthalpy           old  =     -47.9030438003 Ry
     enthalpy           new  =     -47.9030450995 Ry

     CASE: enthalpy          _new < enthalpy          _old

     new trust radius        =       0.0009046583 bohr
     new conv_thr            =            1.0E-11 Ry

     new unit-cell volume =    716.11883 a.u.^3 (   106.11786 Ang^3 )
     density =      0.75178 g/cm^3

CELL_PARAMETERS (alat=  4.65610675)
   1.004592357  -0.000000000   0.000000000
  -0.502296178   0.870002502   0.000000000
   0.000000000   0.000000000   8.117194158

ATOMIC_POSITIONS (crystal)
C            -0.0000000000       -0.0000000000        0.4125947220
C             0.3333333330        0.6666666660        0.4125808378
C            -0.0000000000        0.0000000000        0.5874052780
C             0.6666666660        0.3333333330        0.5874191622



     Writing config-only to output data dir ../tmp/gr.save/
     NEW-OLD atomic charge density approx. for the potential

     Check: negative core charge=   -0.000003

     negative rho (up, down):  1.764E-04 0.000E+00
     extrapolated charge   16.00069, renormalised to   16.00000

     total cpu time spent up to now is       43.2 secs

     Self-consistent Calculation

     iteration #  1     ecut=    60.00 Ry     beta= 0.70
     Davidson diagonalization with overlap
     ethr =  1.00E-06,  avg # of iterations =  2.0

     Threshold (ethr) on eigenvalues was too large:
     Diagonalizing with lowered threshold

     Davidson diagonalization with overlap
     ethr =  1.51E-08,  avg # of iterations =  5.1

     negative rho (up, down):  1.761E-04 0.000E+00

     total cpu time spent up to now is       43.8 secs

     WARNING: integrated charge=    16.00000161, expected=    16.00000000

     total energy              =     -47.90304650 Ry
     estimated scf accuracy    <       0.00000041 Ry

     iteration #  2     ecut=    60.00 Ry     beta= 0.70
     Davidson diagonalization with overlap
     ethr =  2.58E-09,  avg # of iterations =  4.5

[...]

     total energy              =     -47.90624932 Ry
     estimated scf accuracy    <       0.00210706 Ry

     iteration # 17     ecut=    60.00 Ry     beta= 0.70
     Davidson diagonalization with overlap
     c_bands:  2 eigenvalues not converged
     ethr =  5.07E-06,  avg # of iterations =  5.6

     negative rho (up, down):  1.553E-04 0.000E+00

     total cpu time spent up to now is      119.1 secs

     WARNING: integrated charge=    16.00000162, expected=    16.00000000

     total energy              =     -47.90791504 Ry
     estimated scf accuracy    <       0.00664254 Ry

     iteration # 18     ecut=    60.00 Ry     beta= 0.70
     Davidson diagonalization with overlap
     ethr =  5.07E-06,  avg # of iterations =  5.4

     negative rho (up, down):  1.533E-04 0.000E+00

     total cpu time spent up to now is      119.4 secs

     total energy              =     -47.90880014 Ry
     estimated scf accuracy    <       0.01001369 Ry

     iteration # 19     ecut=    60.00 Ry     beta= 0.70
     Davidson diagonalization with overlap
     ethr =  5.07E-06,  avg # of iterations =  2.0

     negative rho (up, down):  1.496E-04 0.000E+00

     total cpu time spent up to now is      119.7 secs

     total energy              =     -47.91373434 Ry
     estimated scf accuracy    <       0.01170862 Ry

     iteration # 20     ecut=    60.00 Ry     beta= 0.70
     Davidson diagonalization with overlap
     ethr =  5.07E-06,  avg # of iterations =  6.3

     negative rho (up, down):  1.656E-04 0.000E+00

     total cpu time spent up to now is      120.1 secs

     WARNING: integrated charge=    16.00000272, expected=    16.00000000

     total energy              =     -47.90183173 Ry
     estimated scf accuracy    <       0.02332573 Ry

     iteration # 21     ecut=    60.00 Ry     beta= 0.70
     Davidson diagonalization with overlap
     c_bands:  1 eigenvalues not converged
     ethr =  5.07E-06,  avg # of iterations =  7.7

     negative rho (up, down):  1.603E-04 0.000E+00

     total cpu time spent up to now is      120.5 secs

     WARNING: integrated charge=    16.00000277, expected=    16.00000000

     total energy              =     -47.90305999 Ry
     estimated scf accuracy    <       0.00160504 Ry

     iteration # 22     ecut=    60.00 Ry     beta= 0.70
     Davidson diagonalization with overlap
     c_bands:  1 eigenvalues not converged
     ethr =  5.07E-06,  avg # of iterations =  4.6

     negative rho (up, down):  1.626E-04 0.000E+00

     total cpu time spent up to now is      120.8 secs

     WARNING: integrated charge=    16.00000284, expected=    16.00000000

     total energy              =     -47.90297454 Ry
     estimated scf accuracy    <       0.00049471 Ry

     iteration # 23     ecut=    60.00 Ry     beta= 0.70
     Davidson diagonalization with overlap
     c_bands:  1 eigenvalues not converged
     ethr =  3.09E-06,  avg # of iterations =  6.5

     negative rho (up, down):  1.627E-04 0.000E+00

     total cpu time spent up to now is      121.2 secs

     WARNING: integrated charge=    16.00000288, expected=    16.00000000

     total energy              =     -47.90312988 Ry
     estimated scf accuracy    <       0.00003435 Ry

     iteration # 24     ecut=    60.00 Ry     beta= 0.70
     Davidson diagonalization with overlap
     ethr =  2.15E-07,  avg # of iterations =  6.1

     negative rho (up, down):  1.641E-04 0.000E+00

     total cpu time spent up to now is      121.6 secs

     WARNING: integrated charge=    16.00000287, expected=    16.00000000

     total energy              =     -47.90318467 Ry
     estimated scf accuracy    <       0.00000668 Ry

     iteration # 25     ecut=    60.00 Ry     beta= 0.70
     Davidson diagonalization with overlap
     ethr =  4.17E-08,  avg # of iterations =  3.7

     negative rho (up, down):  1.656E-04 0.000E+00

     total cpu time spent up to now is      121.9 secs

     WARNING: integrated charge=    16.00000285, expected=    16.00000000

     total energy              =     -47.90319430 Ry
     estimated scf accuracy    <       0.00000964 Ry

     iteration # 26     ecut=    60.00 Ry     beta= 0.70
     Davidson diagonalization with overlap
     ethr =  4.17E-08,  avg # of iterations =  4.6

     negative rho (up, down):  1.659E-04 0.000E+00

     total cpu time spent up to now is      122.2 secs

     WARNING: integrated charge=    16.00000287, expected=    16.00000000

     total energy              =     -47.90318728 Ry
     estimated scf accuracy    <       0.00003083 Ry

     iteration # 27     ecut=    60.00 Ry     beta= 0.70
     Davidson diagonalization with overlap
     ethr =  4.17E-08,  avg # of iterations =  1.0

     negative rho (up, down):  1.666E-04 0.000E+00

     total cpu time spent up to now is      122.4 secs

     WARNING: integrated charge=    16.00000286, expected=    16.00000000

     total energy              =     -47.90319724 Ry
     estimated scf accuracy    <       0.00001417 Ry

     iteration # 28     ecut=    60.00 Ry     beta= 0.70
     Davidson diagonalization with overlap
     ethr =  4.17E-08,  avg # of iterations =  1.1

     negative rho (up, down):  1.674E-04 0.000E+00

     total cpu time spent up to now is      122.7 secs

     WARNING: integrated charge=    16.00000288, expected=    16.00000000

     total energy              =     -47.90320581 Ry
     estimated scf accuracy    <       0.00002927 Ry

     iteration # 29     ecut=    60.00 Ry     beta= 0.70
     Davidson diagonalization with overlap
     ethr =  4.17E-08,  avg # of iterations =  1.9

     negative rho (up, down):  1.657E-04 0.000E+00

     total cpu time spent up to now is      122.9 secs

     WARNING: integrated charge=    16.00000286, expected=    16.00000000

     total energy              =     -47.90318596 Ry
     estimated scf accuracy    <       0.00004399 Ry

     iteration # 30     ecut=    60.00 Ry     beta= 0.70
     Davidson diagonalization with overlap
     ethr =  4.17E-08,  avg # of iterations =  1.9

     negative rho (up, down):  1.646E-04 0.000E+00

     total cpu time spent up to now is      123.2 secs

     WARNING: integrated charge=    16.00000286, expected=    16.00000000

     total energy              =     -47.90317718 Ry
     estimated scf accuracy    <       0.00001415 Ry

     iteration # 31     ecut=    60.00 Ry     beta= 0.70
     Davidson diagonalization with overlap
     ethr =  4.17E-08,  avg # of iterations =  4.4

     negative rho (up, down):  1.650E-04 0.000E+00

     total cpu time spent up to now is      123.5 secs

     WARNING: integrated charge=    16.00000286, expected=    16.00000000

     total energy              =     -47.90318256 Ry
     estimated scf accuracy    <       0.00000104 Ry

     iteration # 32     ecut=    60.00 Ry     beta= 0.70
     Davidson diagonalization with overlap
     ethr =  6.47E-09,  avg # of iterations =  4.7

     negative rho (up, down):  1.649E-04 0.000E+00

     total cpu time spent up to now is      123.9 secs

     WARNING: integrated charge=    16.00000286, expected=    16.00000000

     total energy              =     -47.90318319 Ry
     estimated scf accuracy    <       0.00000017 Ry

     iteration # 33     ecut=    60.00 Ry     beta= 0.70
     Davidson diagonalization with overlap
     ethr =  1.08E-09,  avg # of iterations =  4.8

     negative rho (up, down):  1.651E-04 0.000E+00

     total cpu time spent up to now is      124.2 secs

     WARNING: integrated charge=    16.00000286, expected=    16.00000000

     total energy              =     -47.90318366 Ry
     estimated scf accuracy    <       0.00000006 Ry

     iteration # 34     ecut=    60.00 Ry     beta= 0.70
     Davidson diagonalization with overlap
     ethr =  4.00E-10,  avg # of iterations =  9.6

     negative rho (up, down):  1.651E-04 0.000E+00

     total cpu time spent up to now is      124.8 secs

     WARNING: integrated charge=    16.00000286, expected=    16.00000000

     total energy              =     -47.90318449 Ry
     estimated scf accuracy    <       0.00000142 Ry

     iteration # 35     ecut=    60.00 Ry     beta= 0.70
     Davidson diagonalization with overlap
     ethr =  4.00E-10,  avg # of iterations =  4.1

     negative rho (up, down):  1.649E-04 0.000E+00

     total cpu time spent up to now is      125.1 secs

     WARNING: integrated charge=    16.00000286, expected=    16.00000000

     total energy              =     -47.90318303 Ry
     estimated scf accuracy    <       0.00000255 Ry

     iteration # 36     ecut=    60.00 Ry     beta= 0.70
     Davidson diagonalization with overlap
     ethr =  4.00E-10,  avg # of iterations =  9.5

     negative rho (up, down):  1.649E-04 0.000E+00

     total cpu time spent up to now is      125.7 secs

     WARNING: integrated charge=    16.00000286, expected=    16.00000000

     total energy              =     -47.90318328 Ry
     estimated scf accuracy    <       0.00000007 Ry

     iteration # 37     ecut=    60.00 Ry     beta= 0.70
     Davidson diagonalization with overlap
     ethr =  4.00E-10,  avg # of iterations =  3.8

     negative rho (up, down):  1.649E-04 0.000E+00

     total cpu time spent up to now is      126.0 secs

     WARNING: integrated charge=    16.00000286, expected=    16.00000000

     total energy              =     -47.90318330 Ry
     estimated scf accuracy    <          3.0E-09 Ry

     iteration # 38     ecut=    60.00 Ry     beta= 0.70
     Davidson diagonalization with overlap
     ethr =  1.87E-11,  avg # of iterations =  9.3

     negative rho (up, down):  1.649E-04 0.000E+00

     total cpu time spent up to now is      126.5 secs

     WARNING: integrated charge=    16.00000286, expected=    16.00000000

     total energy              =     -47.90318331 Ry
     estimated scf accuracy    <       0.00000003 Ry

     iteration # 39     ecut=    60.00 Ry     beta= 0.70
     Davidson diagonalization with overlap
     ethr =  1.87E-11,  avg # of iterations =  4.6

     negative rho (up, down):  1.649E-04 0.000E+00

     total cpu time spent up to now is      126.9 secs

     WARNING: integrated charge=    16.00000286, expected=    16.00000000

     total energy              =     -47.90318330 Ry
     estimated scf accuracy    <          4.0E-09 Ry

     iteration # 40     ecut=    60.00 Ry     beta= 0.70
     Davidson diagonalization with overlap
     ethr =  1.87E-11,  avg # of iterations =  2.9

     negative rho (up, down):  1.649E-04 0.000E+00

     total cpu time spent up to now is      127.1 secs

     WARNING: integrated charge=    16.00000286, expected=    16.00000000

     total energy              =     -47.90318330 Ry
     estimated scf accuracy    <          7.3E-10 Ry

     iteration # 41     ecut=    60.00 Ry     beta= 0.70
     Davidson diagonalization with overlap
     ethr =  4.56E-12,  avg # of iterations =  5.7

     negative rho (up, down):  1.649E-04 0.000E+00

     total cpu time spent up to now is      127.5 secs

     WARNING: integrated charge=    16.00000286, expected=    16.00000000

     total energy              =     -47.90318330 Ry
     estimated scf accuracy    <          6.3E-10 Ry

     iteration # 42     ecut=    60.00 Ry     beta= 0.70
     Davidson diagonalization with overlap
     ethr =  3.94E-12,  avg # of iterations =  1.3

     negative rho (up, down):  1.649E-04 0.000E+00

     total cpu time spent up to now is      127.8 secs

     WARNING: integrated charge=    16.00000286, expected=    16.00000000

     total energy              =     -47.90318330 Ry
     estimated scf accuracy    <          3.6E-10 Ry

     iteration # 43     ecut=    60.00 Ry     beta= 0.70
     Davidson diagonalization with overlap
     ethr =  2.26E-12,  avg # of iterations =  1.3

     negative rho (up, down):  1.649E-04 0.000E+00

     total cpu time spent up to now is      128.0 secs

     WARNING: integrated charge=    16.00000286, expected=    16.00000000

     total energy              =     -47.90318330 Ry
     estimated scf accuracy    <          2.1E-10 Ry

     iteration # 44     ecut=    60.00 Ry     beta= 0.70
     Davidson diagonalization with overlap
     ethr =  1.33E-12,  avg # of iterations =  2.0

     negative rho (up, down):  1.649E-04 0.000E+00

     total cpu time spent up to now is      128.3 secs

     WARNING: integrated charge=    16.00000286, expected=    16.00000000

     total energy              =     -47.90318330 Ry
     estimated scf accuracy    <          8.3E-11 Ry

     iteration # 45     ecut=    60.00 Ry     beta= 0.70
     Davidson diagonalization with overlap
     ethr =  5.22E-13,  avg # of iterations =  3.7

     negative rho (up, down):  1.649E-04 0.000E+00

     total cpu time spent up to now is      128.6 secs

     WARNING: integrated charge=    16.00000286, expected=    16.00000000

     total energy              =     -47.90318330 Ry
     estimated scf accuracy    <          3.4E-11 Ry

     iteration # 46     ecut=    60.00 Ry     beta= 0.70
     Davidson diagonalization with overlap
     ethr =  2.10E-13,  avg # of iterations =  3.7

     negative rho (up, down):  1.649E-04 0.000E+00

     total cpu time spent up to now is      128.8 secs

     WARNING: integrated charge=    16.00000286, expected=    16.00000000

     total energy              =     -47.90318330 Ry
     estimated scf accuracy    <          4.0E-11 Ry

     iteration # 47     ecut=    60.00 Ry     beta= 0.70
     Davidson diagonalization with overlap
     ethr =  2.10E-13,  avg # of iterations =  4.4

     negative rho (up, down):  1.649E-04 0.000E+00

     total cpu time spent up to now is      129.2 secs

     WARNING: integrated charge=    16.00000286, expected=    16.00000000

     total energy              =     -47.90318330 Ry
     estimated scf accuracy    <          1.1E-11 Ry

     iteration # 48     ecut=    60.00 Ry     beta= 0.70
     Davidson diagonalization with overlap
     ethr =  1.00E-13,  avg # of iterations =  2.0

     negative rho (up, down):  1.649E-04 0.000E+00

     total cpu time spent up to now is      129.4 secs

     End of self-consistent calculation

          k = 0.0000 0.0000 0.0000 (  5565 PWs)   bands (ev):

   -19.9969 -19.8506  -8.5472  -7.5659  -3.6512  -3.6512  -3.6426  -3.6426
     2.2777   2.6417   2.9946   4.7665

          k = 0.0000 0.1437 0.0000 (  5612 PWs)   bands (ev):

   -19.6304 -19.4875  -8.1043  -7.1377  -5.0151  -4.9924  -4.3383  -4.3219
     2.7808   3.1454   3.4944   4.7549

          k = 0.0000 0.2874 0.0000 (  5630 PWs)   bands (ev):

   -18.5407 -18.4077  -7.9869  -7.9395  -6.8022  -5.8864  -5.6198  -5.5970
     4.2868   4.6472   4.9924   6.1989

          k = 0.0000 0.4311 0.0000 (  5644 PWs)   bands (ev):

   -16.7673 -16.6506 -11.2312 -11.1595  -6.6088  -6.5833  -4.7773  -3.9926
     2.9875   3.4861   6.7614   6.9347

          k =-0.0000-0.5748 0.0000 (  5652 PWs)   bands (ev):

   -14.7957 -14.7415 -13.6888 -13.6472  -6.9650  -6.9388  -3.0450  -2.6902
     0.9893   1.3468   6.7352   6.9291

          k = 0.1244 0.2155 0.0000 (  5610 PWs)   bands (ev):

   -18.9023 -18.7660  -7.2306  -6.7956  -6.7751  -6.2959  -5.7018  -5.6872
     3.7860   4.1506   4.4942   5.7491

          k = 0.1244 0.3592 0.0000 (  5632 PWs)   bands (ev):

   -17.4695 -17.3462  -9.5592  -9.5067  -7.1998  -7.1679  -5.5462  -4.6923
     4.4590   4.7974   5.7875   6.1566

          k = 0.1244 0.5029 0.0000 (  5625 PWs)   bands (ev):

   -15.4214 -15.3201 -12.5219 -12.4458  -7.9606  -7.9222  -3.3597  -2.7522
     1.4974   1.9095   8.2638   8.4815

          k = 0.2489 0.4311 0.0000 (  5580 PWs)   bands (ev):

   -15.7437 -15.6369 -11.0677 -11.0312  -9.4309  -9.4038  -3.5833  -2.8601
     2.1239   2.4228   8.2501   8.5414

          k = 0.2489 0.5748 0.0000 (  5602 PWs)   bands (ev):

   -13.8524 -13.8032 -12.9312 -12.9108 -10.2170 -10.1694  -1.7191  -1.3788
     0.4207   0.4822  10.0260  10.1275

     the Fermi energy is    -0.3003 ev

     WARNING: integrated charge=    16.00000286, expected=    16.00000000

!    total energy              =     -47.90318330 Ry
     estimated scf accuracy    <          3.8E-12 Ry
     smearing contrib. (-TS)   =       0.00000004 Ry
     internal energy E=F+TS    =     -47.90318334 Ry

     The total energy is F=E-TS. E is the sum of the following terms:
     one-electron contribution =    -530.57182262 Ry
     hartree contribution      =     268.87892275 Ry
     xc contribution           =     -16.66259189 Ry
     ewald contribution        =     230.45230842 Ry

     convergence has been achieved in  48 iterations

     negative rho (up, down):  1.649E-04 0.000E+00

     Forces acting on atoms (cartesian axes, Ry/au):

     atom    1 type  1   force =     0.00000000    0.00000000   -0.00000179
     atom    2 type  1   force =     0.00000000    0.00000000   -0.00000778
     atom    3 type  1   force =    -0.00000000   -0.00000000    0.00000179
     atom    4 type  1   force =    -0.00000000   -0.00000000    0.00000778

     Total force =     0.000011     Total SCF correction =     0.000007
     SCF correction compared to forces is large: reduce conv_thr to get better values


     Computing stress (Cartesian axis) and pressure


     negative rho (up, down):  1.649E-04 0.000E+00
          total   stress  (Ry/bohr**3)                   (kbar)     P=       -0.11
   0.00000021   0.00000000  -0.00000000            0.03        0.00       -0.00
   0.00000000   0.00000021  -0.00000000            0.00        0.03       -0.00
   0.00000000   0.00000000  -0.00000274            0.00        0.00       -0.40


     Writing all to output data dir ../tmp/gr.save/
 
     init_run     :      1.37s CPU      1.55s WALL (       2 calls)
     electrons    :     91.75s CPU    113.16s WALL (      19 calls)
     update_pot   :      3.56s CPU      3.99s WALL (      17 calls)
     forces       :      2.92s CPU      3.32s WALL (      19 calls)
     stress       :      7.00s CPU      7.72s WALL (      19 calls)

     Called by init_run:
     wfcinit      :      0.14s CPU      0.17s WALL (       2 calls)
     potinit      :      0.86s CPU      0.92s WALL (       2 calls)
     hinit0       :      0.23s CPU      0.31s WALL (       2 calls)

     Called by electrons:
     c_bands      :     65.11s CPU     78.17s WALL (     325 calls)
     sum_band     :      9.67s CPU     11.61s WALL (     325 calls)
     v_of_rho     :     17.35s CPU     23.37s WALL (     333 calls)
     newd         :      0.86s CPU      1.56s WALL (     333 calls)
     mix_rho      :      0.38s CPU      0.45s WALL (     325 calls)

     Called by c_bands:
     init_us_2    :      0.80s CPU      0.95s WALL (    6900 calls)
     init_us_2:cp :      0.79s CPU      0.94s WALL (    6900 calls)
     cegterg      :     62.20s CPU     74.84s WALL (    3270 calls)

     Called by *egterg:
     cdiaghg      :      1.77s CPU      2.13s WALL (   17783 calls)
     h_psi        :     52.54s CPU     63.25s WALL (   18103 calls)
     s_psi        :      1.16s CPU      1.41s WALL (   18103 calls)
     g_psi        :      0.26s CPU      0.31s WALL (   14813 calls)

     Called by h_psi:
     h_psi:calbec :      1.92s CPU      2.35s WALL (   18103 calls)
     vloc_psi     :     49.31s CPU     59.30s WALL (   18103 calls)
     add_vuspsi   :      1.19s CPU      1.45s WALL (   18103 calls)

     General routines
     calbec       :      2.54s CPU      3.08s WALL (   22303 calls)
     fft          :      7.27s CPU     12.43s WALL (   23552 calls)
     ffts         :      0.09s CPU      0.11s WALL (     325 calls)
     fftw         :     53.57s CPU     64.49s WALL (  310656 calls)
 
     Parallel routines
 
     PWSCF        :   1m46.81s CPU   2m10.03s WALL

 
   This run was terminated on:   0:33:24   2Feb2022            

=------------------------------------------------------------------------------=
   JOB DONE.
=------------------------------------------------------------------------------=
