
     Program PWSCF v.7.0 starts on  2Feb2022 at  0:27:10 

     This program is part of the open-source Quantum ESPRESSO suite
     for quantum simulation of materials; please cite
         "P. Giannozzi et al., J. Phys.:Condens. Matter 21 395502 (2009);
         "P. Giannozzi et al., J. Phys.:Condens. Matter 29 465901 (2017);
         "P. Giannozzi et al., J. Chem. Phys. 152 154105 (2020);
          URL http://www.quantum-espresso.org", 
     in publications or presentations arising from this work. More details at
     http://www.quantum-espresso.org/quote

     Parallel version (MPI), running on     4 processors

     MPI processes distributed on     1 nodes
     R & G space division:  proc/nbgrp/npool/nimage =       4
     236099 MiB available memory on the printing compute node when the environment starts
 
     Waiting for input...
     Reading input from standard input

     Current dimensions of program PWSCF are:
     Max number of different atomic species (ntypx) = 10
     Max number of k-points (npk) =  40000
     Max angular momentum in pseudopotentials (lmaxx) =  4

     IMPORTANT: XC functional enforced from input :
     Exchange-correlation= VDW-DF3-OPT2
                           (   1   4  46   0   4   0   0)
     Any further DFT definition will be discarded
     Please, verify this is what you really want


     Subspace diagonalization in iterative solution of the eigenvalue problem:
     a serial algorithm will be used

 
     Parallelization info
     --------------------
     sticks:   dense  smooth     PW     G-vecs:    dense   smooth      PW
     Min          90      90     27                11152    11152    1895
     Max          91      91     28                11175    11175    1922
     Sum         361     361    109                44659    44659    7615
 
     Using Slab Decomposition
 


     bravais-lattice index     =            4
     lattice parameter (alat)  =       4.6561  a.u.
     unit-cell volume          =     709.5865 (a.u.)^3
     number of atoms/cell      =            4
     number of atomic types    =            1
     number of electrons       =        16.00
     number of Kohn-Sham states=           12
     kinetic-energy cutoff     =      60.0000  Ry
     charge density cutoff     =     240.0000  Ry
     scf convergence threshold =      1.0E-09
     mixing beta               =       0.7000
     number of iterations used =            8  plain     mixing
     energy convergence thresh.=      1.0E-05
     force convergence thresh. =      1.0E-04
     press convergence thresh. =      5.0E-02
     Exchange-correlation= VDW-DF3-OPT2
                           (   1   4  46   0   4   0   0)
     nstep                     =           50


     celldm(1)=   4.656107  celldm(2)=   0.000000  celldm(3)=   8.117194
     celldm(4)=   0.000000  celldm(5)=   0.000000  celldm(6)=   0.000000

     crystal axes: (cart. coord. in units of alat)
               a(1) = (   1.000000   0.000000   0.000000 )  
               a(2) = (  -0.500000   0.866025   0.000000 )  
               a(3) = (   0.000000   0.000000   8.117194 )  

     reciprocal axes: (cart. coord. in units 2 pi/alat)
               b(1) = (  1.000000  0.577350  0.000000 )  
               b(2) = (  0.000000  1.154701  0.000000 )  
               b(3) = (  0.000000  0.000000  0.123195 )  


     PseudoPot. # 1 for C  read from file:
     ../pseudo/C.pbe-n-rrkjus_psl.0.1.UPF
     MD5 check sum: 96a6a315177d77e6c95bf6fd3870f9e3
     Pseudo is Ultrasoft + core correction, Zval =  4.0
     Generated using &quot;atomic&quot; code by A. Dal Corso  v.6.3MaX
     Using radial grid of 1073 points,  4 beta functions with: 
                l(1) =   0
                l(2) =   0
                l(3) =   1
                l(4) =   1
     Q(r) pseudized with 0 coefficients 


     atomic species   valence    mass     pseudopotential
        C              4.00    12.01070     C ( 1.00)

     12 Sym. Ops., with inversion, found



   Cartesian axes

     site n.     atom                  positions (alat units)
         1           C   tau(   1) = (   0.0000000   0.0000000   3.3483426  )
         2           C   tau(   2) = (   0.0000000   0.5773503   3.3483426  )
         3           C   tau(   3) = (   0.0000000   0.0000000   4.7688516  )
         4           C   tau(   4) = (   0.5000000   0.2886751   4.7688516  )

     number of k points=    10  Marzari-Vanderbilt smearing, width (Ry)=  0.0200
                       cart. coord. in units 2pi/alat
        k(    1) = (   0.0000000   0.0000000   0.0000000), wk =   0.0312500
        k(    2) = (   0.0000000   0.1443376   0.0000000), wk =   0.1875000
        k(    3) = (   0.0000000   0.2886751   0.0000000), wk =   0.1875000
        k(    4) = (   0.0000000   0.4330127   0.0000000), wk =   0.1875000
        k(    5) = (   0.0000000  -0.5773503   0.0000000), wk =   0.0937500
        k(    6) = (   0.1250000   0.2165064   0.0000000), wk =   0.1875000
        k(    7) = (   0.1250000   0.3608439   0.0000000), wk =   0.3750000
        k(    8) = (   0.1250000   0.5051815   0.0000000), wk =   0.3750000
        k(    9) = (   0.2500000   0.4330127   0.0000000), wk =   0.1875000
        k(   10) = (   0.2500000   0.5773503   0.0000000), wk =   0.1875000

     Dense  grid:    44659 G-vectors     FFT dimensions: (  24,  24, 192)

     Estimated max dynamical RAM per process >      19.86 MB

     Estimated total dynamical RAM >      79.43 MB

     Check: negative core charge=   -0.000004

     Initial potential from superposition of free atoms

     starting charge      15.9998, renormalised to      16.0000

     negative rho (up, down):  1.330E-04 0.000E+00


     %%%%%%%%%%%%%%%%%%%%%%%%%%%%%%%%%%%%%%%%%%%%%%%%%%%%%%%%%%%%%%%%%%%%%%%%
     %                                                                      %
     % You are using vdW-DF, which was implemented by the Thonhauser group. %
     % Please cite the following two papers that made this development      %
     % possible and the two reviews that describe the various versions:     %
     %                                                                      %
     %   T. Thonhauser et al., PRL 115, 136402 (2015).                      %
     %   T. Thonhauser et al., PRB 76, 125112 (2007).                       %
     %   K. Berland et al., Rep. Prog. Phys. 78, 066501 (2015).             %
     %   D.C. Langreth et al., J. Phys.: Condens. Matter 21, 084203 (2009). %
     %                                                                      %
     %                                                                      %
     % If you are calculating the stress with vdW-DF, please also cite:     %
     %                                                                      %
     %   R. Sabatini et al., J. Phys.: Condens. Matter 24, 424209 (2012).   %
     %                                                                      %
     %%%%%%%%%%%%%%%%%%%%%%%%%%%%%%%%%%%%%%%%%%%%%%%%%%%%%%%%%%%%%%%%%%%%%%%%


     Starting wfcs are   16 randomized atomic wfcs

     total cpu time spent up to now is        9.3 secs

     Self-consistent Calculation

     iteration #  1     ecut=    60.00 Ry     beta= 0.70
     Davidson diagonalization with overlap
     ethr =  1.00E-02,  avg # of iterations =  3.9

     Threshold (ethr) on eigenvalues was too large:
     Diagonalizing with lowered threshold

     Davidson diagonalization with overlap
     ethr =  6.92E-04,  avg # of iterations =  7.6

     negative rho (up, down):  4.330E-05 0.000E+00

     total cpu time spent up to now is       10.0 secs

     total energy              =     -47.81977820 Ry
     estimated scf accuracy    <       0.37029334 Ry

     iteration #  2     ecut=    60.00 Ry     beta= 0.70
     Davidson diagonalization with overlap
     ethr =  2.31E-03,  avg # of iterations =  1.6

     negative rho (up, down):  1.470E-04 0.000E+00

     total cpu time spent up to now is       10.2 secs

     total energy              =     -47.82289618 Ry
     estimated scf accuracy    <       0.02003029 Ry

     iteration #  3     ecut=    60.00 Ry     beta= 0.70
     Davidson diagonalization with overlap
     c_bands:  1 eigenvalues not converged
     c_bands:  1 eigenvalues not converged
     c_bands:  4 eigenvalues not converged
     c_bands:  2 eigenvalues not converged
     c_bands:  3 eigenvalues not converged
     c_bands:  2 eigenvalues not converged
     c_bands:  2 eigenvalues not converged
     ethr =  1.25E-04,  avg # of iterations = 17.3

     negative rho (up, down):  1.507E-04 0.000E+00

     total cpu time spent up to now is       11.1 secs

     total energy              =     -47.89220292 Ry
     estimated scf accuracy    <       0.03028755 Ry

     iteration #  4     ecut=    60.00 Ry     beta= 0.70
     Davidson diagonalization with overlap
     ethr =  1.25E-04,  avg # of iterations =  4.9

     negative rho (up, down):  1.509E-04 0.000E+00

     total cpu time spent up to now is       11.4 secs

     total energy              =     -47.89903970 Ry
     estimated scf accuracy    <       0.04019929 Ry

     iteration #  5     ecut=    60.00 Ry     beta= 0.70
     Davidson diagonalization with overlap
     ethr =  1.25E-04,  avg # of iterations =  1.2

     negative rho (up, down):  1.161E-04 0.000E+00

     total cpu time spent up to now is       11.6 secs

     total energy              =     -47.88086983 Ry
     estimated scf accuracy    <       0.04947939 Ry

     iteration #  6     ecut=    60.00 Ry     beta= 0.70
     Davidson diagonalization with overlap
     ethr =  1.25E-04,  avg # of iterations =  1.1

     negative rho (up, down):  1.185E-04 0.000E+00

     total cpu time spent up to now is       11.9 secs

     total energy              =     -47.87623367 Ry
     estimated scf accuracy    <       0.02272712 Ry

     iteration #  7     ecut=    60.00 Ry     beta= 0.70
     Davidson diagonalization with overlap
     ethr =  1.25E-04,  avg # of iterations =  1.9

     negative rho (up, down):  1.147E-04 0.000E+00

     total cpu time spent up to now is       12.1 secs

     total energy              =     -47.87842665 Ry
     estimated scf accuracy    <       0.01218017 Ry

     iteration #  8     ecut=    60.00 Ry     beta= 0.70
     Davidson diagonalization with overlap
     ethr =  7.61E-05,  avg # of iterations =  1.1

     negative rho (up, down):  1.234E-04 0.000E+00

     total cpu time spent up to now is       12.3 secs

     total energy              =     -47.87678635 Ry
     estimated scf accuracy    <       0.01384559 Ry

     iteration #  9     ecut=    60.00 Ry     beta= 0.70
     Davidson diagonalization with overlap
     ethr =  7.61E-05,  avg # of iterations =  1.2

     negative rho (up, down):  1.434E-04 0.000E+00

     total cpu time spent up to now is       12.6 secs

     total energy              =     -47.87302065 Ry
     estimated scf accuracy    <       0.00963225 Ry

     iteration # 10     ecut=    60.00 Ry     beta= 0.70
     Davidson diagonalization with overlap
     ethr =  6.02E-05,  avg # of iterations =  3.2

     negative rho (up, down):  1.436E-04 0.000E+00

     total cpu time spent up to now is       12.8 secs

     total energy              =     -47.87366055 Ry
     estimated scf accuracy    <       0.00204840 Ry

     iteration # 11     ecut=    60.00 Ry     beta= 0.70
     Davidson diagonalization with overlap
     c_bands:  1 eigenvalues not converged
     ethr =  1.28E-05,  avg # of iterations =  8.3

     negative rho (up, down):  1.285E-04 0.000E+00

     total cpu time spent up to now is       13.2 secs

     total energy              =     -47.87727764 Ry
     estimated scf accuracy    <       0.00094319 Ry

     iteration # 12     ecut=    60.00 Ry     beta= 0.70
     Davidson diagonalization with overlap
     c_bands:  1 eigenvalues not converged
     ethr =  5.89E-06,  avg # of iterations =  7.0

     negative rho (up, down):  1.662E-04 0.000E+00

     total cpu time spent up to now is       13.6 secs

     WARNING: integrated charge=    16.00000167, expected=    16.00000000

     total energy              =     -47.87358495 Ry
     estimated scf accuracy    <       0.00692947 Ry

     iteration # 13     ecut=    60.00 Ry     beta= 0.70
     Davidson diagonalization with overlap
     ethr =  5.89E-06,  avg # of iterations =  5.2

     negative rho (up, down):  1.753E-04 0.000E+00

     total cpu time spent up to now is       13.9 secs

     WARNING: integrated charge=    16.00000170, expected=    16.00000000

     total energy              =     -47.87446440 Ry
     estimated scf accuracy    <       0.00004864 Ry

     iteration # 14     ecut=    60.00 Ry     beta= 0.70
     Davidson diagonalization with overlap
     c_bands:  2 eigenvalues not converged
     ethr =  3.04E-07,  avg # of iterations =  9.9

     negative rho (up, down):  1.764E-04 0.000E+00

     total cpu time spent up to now is       14.5 secs

     WARNING: integrated charge=    16.00000170, expected=    16.00000000

     total energy              =     -47.87462013 Ry
     estimated scf accuracy    <       0.00018650 Ry

     iteration # 15     ecut=    60.00 Ry     beta= 0.70
     Davidson diagonalization with overlap
     ethr =  3.04E-07,  avg # of iterations =  2.4

     negative rho (up, down):  1.788E-04 0.000E+00

     total cpu time spent up to now is       14.7 secs

     WARNING: integrated charge=    16.00000172, expected=    16.00000000

     total energy              =     -47.87448774 Ry
     estimated scf accuracy    <       0.00021488 Ry

     iteration # 16     ecut=    60.00 Ry     beta= 0.70
     Davidson diagonalization with overlap
     ethr =  3.04E-07,  avg # of iterations =  6.1

     negative rho (up, down):  1.789E-04 0.000E+00

     total cpu time spent up to now is       15.1 secs

     WARNING: integrated charge=    16.00000172, expected=    16.00000000

     total energy              =     -47.87451810 Ry
     estimated scf accuracy    <       0.00000280 Ry

     iteration # 17     ecut=    60.00 Ry     beta= 0.70
     Davidson diagonalization with overlap
     ethr =  1.75E-08,  avg # of iterations = 11.5

     negative rho (up, down):  1.791E-04 0.000E+00

     total cpu time spent up to now is       15.7 secs

     WARNING: integrated charge=    16.00000172, expected=    16.00000000

     total energy              =     -47.87454503 Ry
     estimated scf accuracy    <       0.00004283 Ry

     iteration # 18     ecut=    60.00 Ry     beta= 0.70
     Davidson diagonalization with overlap
     ethr =  1.75E-08,  avg # of iterations =  1.7

     negative rho (up, down):  1.778E-04 0.000E+00

     total cpu time spent up to now is       16.0 secs

     WARNING: integrated charge=    16.00000173, expected=    16.00000000

     total energy              =     -47.87451478 Ry
     estimated scf accuracy    <       0.00004557 Ry

     iteration # 19     ecut=    60.00 Ry     beta= 0.70
     Davidson diagonalization with overlap
     ethr =  1.75E-08,  avg # of iterations =  8.0

     negative rho (up, down):  1.780E-04 0.000E+00

     total cpu time spent up to now is       16.5 secs

     WARNING: integrated charge=    16.00000173, expected=    16.00000000

     total energy              =     -47.87452363 Ry
     estimated scf accuracy    <       0.00000041 Ry

     iteration # 20     ecut=    60.00 Ry     beta= 0.70
     Davidson diagonalization with overlap
     ethr =  2.58E-09,  avg # of iterations =  5.1

     negative rho (up, down):  1.778E-04 0.000E+00

     total cpu time spent up to now is       16.8 secs

     WARNING: integrated charge=    16.00000173, expected=    16.00000000

     total energy              =     -47.87452360 Ry
     estimated scf accuracy    <       0.00000062 Ry

     iteration # 21     ecut=    60.00 Ry     beta= 0.70
     Davidson diagonalization with overlap
     ethr =  2.58E-09,  avg # of iterations =  2.2

     negative rho (up, down):  1.777E-04 0.000E+00

     total cpu time spent up to now is       17.1 secs

     WARNING: integrated charge=    16.00000173, expected=    16.00000000

     total energy              =     -47.87452364 Ry
     estimated scf accuracy    <       0.00000003 Ry

     iteration # 22     ecut=    60.00 Ry     beta= 0.70
     Davidson diagonalization with overlap
     ethr =  1.77E-10,  avg # of iterations =  7.7

     negative rho (up, down):  1.777E-04 0.000E+00

     total cpu time spent up to now is       17.6 secs

     WARNING: integrated charge=    16.00000173, expected=    16.00000000

     total energy              =     -47.87452375 Ry
     estimated scf accuracy    <       0.00000005 Ry

     iteration # 23     ecut=    60.00 Ry     beta= 0.70
     Davidson diagonalization with overlap
     ethr =  1.77E-10,  avg # of iterations =  1.5

     negative rho (up, down):  1.778E-04 0.000E+00

     total cpu time spent up to now is       17.8 secs

     WARNING: integrated charge=    16.00000173, expected=    16.00000000

     total energy              =     -47.87452373 Ry
     estimated scf accuracy    <       0.00000003 Ry

     iteration # 24     ecut=    60.00 Ry     beta= 0.70
     Davidson diagonalization with overlap
     ethr =  1.77E-10,  avg # of iterations =  2.0

     negative rho (up, down):  1.778E-04 0.000E+00

     total cpu time spent up to now is       18.1 secs

     WARNING: integrated charge=    16.00000173, expected=    16.00000000

     total energy              =     -47.87452372 Ry
     estimated scf accuracy    <          2.1E-09 Ry

     iteration # 25     ecut=    60.00 Ry     beta= 0.70
     Davidson diagonalization with overlap
     ethr =  1.30E-11,  avg # of iterations =  9.9

     negative rho (up, down):  1.778E-04 0.000E+00

     total cpu time spent up to now is       18.6 secs

     WARNING: integrated charge=    16.00000173, expected=    16.00000000

     total energy              =     -47.87452372 Ry
     estimated scf accuracy    <          2.5E-09 Ry

     iteration # 26     ecut=    60.00 Ry     beta= 0.70
     Davidson diagonalization with overlap
     ethr =  1.30E-11,  avg # of iterations =  1.1

     negative rho (up, down):  1.778E-04 0.000E+00

     total cpu time spent up to now is       18.9 secs

     WARNING: integrated charge=    16.00000173, expected=    16.00000000

     total energy              =     -47.87452372 Ry
     estimated scf accuracy    <          1.1E-09 Ry

     iteration # 27     ecut=    60.00 Ry     beta= 0.70
     Davidson diagonalization with overlap
     ethr =  6.82E-12,  avg # of iterations =  1.5

     negative rho (up, down):  1.778E-04 0.000E+00

     total cpu time spent up to now is       19.1 secs

     End of self-consistent calculation

          k = 0.0000 0.0000 0.0000 (  5565 PWs)   bands (ev):

   -20.1691 -20.0571  -8.6712  -7.8500  -3.7037  -3.7037  -3.6979  -3.6979
     2.1527   2.5116   2.9674   4.2162

          k = 0.0000 0.1443 0.0000 (  5582 PWs)   bands (ev):

   -19.7996 -19.6904  -8.2240  -7.4154  -5.0775  -5.0612  -4.4042  -4.3927
     2.6560   3.0176   3.4752   4.7223

          k = 0.0000 0.2887 0.0000 (  5566 PWs)   bands (ev):

   -18.7009 -18.5996  -8.0736  -8.0389  -6.9096  -6.1445  -5.7076  -5.6915
     4.1621   4.5252   4.9981   6.2028

          k = 0.0000 0.4330 0.0000 (  5594 PWs)   bands (ev):

   -16.9107 -16.8222 -11.3480 -11.2945  -6.7115  -6.6935  -4.8676  -4.2137
     2.9639   3.3784   6.6329   6.9188

          k = 0.0000-0.5774 0.0000 (  5604 PWs)   bands (ev):

   -14.8956 -14.8548 -13.8657 -13.8344  -7.0728  -7.0542  -3.1371  -2.8457
     0.9046   1.2153   6.7476   6.8980

          k = 0.1250 0.2165 0.0000 (  5559 PWs)   bands (ev):

   -19.0656 -18.9616  -7.3419  -6.8673  -6.8525  -6.5607  -5.7972  -5.7868
     3.6617   4.0273   4.4912   5.7303

          k = 0.1250 0.3608 0.0000 (  5578 PWs)   bands (ev):

   -17.6202 -17.5265  -9.6540  -9.6150  -7.3139  -7.2906  -5.6421  -4.9298
     4.4522   4.7298   5.6628   6.0426

          k = 0.1250 0.5052 0.0000 (  5571 PWs)   bands (ev):

   -15.5478 -15.4710 -12.6529 -12.5955  -8.0808  -8.0528  -3.4421  -2.9374
     1.4429   1.7896   8.2861   8.4486

          k = 0.2500 0.4330 0.0000 (  5528 PWs)   bands (ev):

   -15.8769 -15.7961 -11.1571 -11.1302  -9.5952  -9.5751  -3.6626  -3.0614
     2.0862   2.3289   8.1225   8.4230

          k = 0.2500 0.5774 0.0000 (  5540 PWs)   bands (ev):

   -13.9499 -13.9130 -13.0694 -13.0529 -10.3840 -10.3477  -1.7946  -1.5151
     0.3298   0.3706   9.9617  10.0274

     the Fermi energy is    -0.4156 ev

     WARNING: integrated charge=    16.00000173, expected=    16.00000000

!    total energy              =     -47.87452372 Ry
     estimated scf accuracy    <          6.2E-10 Ry
     smearing contrib. (-TS)   =       0.00000003 Ry
     internal energy E=F+TS    =     -47.87452375 Ry

     The total energy is F=E-TS. E is the sum of the following terms:
     one-electron contribution =    -523.21561450 Ry
     hartree contribution      =     265.19003264 Ry
     xc contribution           =     -16.65498464 Ry
     ewald contribution        =     226.80604275 Ry

     convergence has been achieved in  27 iterations

     negative rho (up, down):  1.778E-04 0.000E+00

     Forces acting on atoms (cartesian axes, Ry/au):

     atom    1 type  1   force =     0.00000000    0.00000000    0.00114461
     atom    2 type  1   force =     0.00000000    0.00000000    0.00078267
     atom    3 type  1   force =     0.00000000    0.00000000   -0.00114461
     atom    4 type  1   force =     0.00000000    0.00000000   -0.00078267

     Total force =     0.001961     Total SCF correction =     0.000007


     Computing stress (Cartesian axis) and pressure


     negative rho (up, down):  1.778E-04 0.000E+00
          total   stress  (Ry/bohr**3)                   (kbar)     P=       -0.95
   0.00000206  -0.00000000   0.00000000            0.30       -0.00        0.00
  -0.00000000   0.00000206   0.00000000           -0.00        0.30        0.00
  -0.00000000  -0.00000000  -0.00002345           -0.00       -0.00       -3.45


     BFGS Geometry Optimization
     Energy error            =      0.0E+00 Ry
     Gradient error          =      1.1E-03 Ry/Bohr
     Cell gradient error     =      3.0E-01 kbar

     number of scf cycles    =   1
     number of bfgs steps    =   0

     enthalpy           new  =     -47.8745237242 Ry

     new trust radius        =       0.0011446069 bohr
     new conv_thr            =       0.0000000010 Ry

     new unit-cell volume =    709.65949 a.u.^3 (   105.16069 Ang^3 )
     density =      0.75862 g/cm^3

CELL_PARAMETERS (alat=  4.65610675)
   1.000051425  -0.000000000   0.000000000
  -0.500025712   0.866069939   0.000000000
   0.000000000   0.000000000   8.117194158

ATOMIC_POSITIONS (crystal)
C             0.0000000000        0.0000000000        0.4125302850
C             0.3333333330        0.6666666660        0.4125207085
C             0.0000000000        0.0000000000        0.5874697150
C             0.6666666660        0.3333333330        0.5874792915



     Writing config-only to output data dir ../tmp/gr.save/
     NEW-OLD atomic charge density approx. for the potential

     Check: negative core charge=   -0.000004

     negative rho (up, down):  1.779E-04 0.000E+00
     extrapolated charge   16.00165, renormalised to   16.00000

     total cpu time spent up to now is       19.9 secs

     Self-consistent Calculation

     iteration #  1     ecut=    60.00 Ry     beta= 0.70
     Davidson diagonalization with overlap
     ethr =  1.00E-06,  avg # of iterations =  2.0

     Threshold (ethr) on eigenvalues was too large:
     Diagonalizing with lowered threshold

     Davidson diagonalization with overlap
     ethr =  4.06E-08,  avg # of iterations =  4.0

     negative rho (up, down):  1.774E-04 0.000E+00

     total cpu time spent up to now is       20.4 secs

     total energy              =     -47.87452418 Ry
     estimated scf accuracy    <       0.00000210 Ry

     iteration #  2     ecut=    60.00 Ry     beta= 0.70
     Davidson diagonalization with overlap
     ethr =  1.31E-08,  avg # of iterations =  5.5

     negative rho (up, down):  1.775E-04 0.000E+00

     total cpu time spent up to now is       20.8 secs

     total energy              =     -47.87452722 Ry
     estimated scf accuracy    <       0.00000991 Ry

     iteration #  3     ecut=    60.00 Ry     beta= 0.70
     Davidson diagonalization with overlap
     ethr =  1.31E-08,  avg # of iterations =  2.6

     negative rho (up, down):  1.774E-04 0.000E+00

     total cpu time spent up to now is       21.1 secs

     total energy              =     -47.87452686 Ry
     estimated scf accuracy    <       0.00000214 Ry

     iteration #  4     ecut=    60.00 Ry     beta= 0.70
     Davidson diagonalization with overlap
     ethr =  1.31E-08,  avg # of iterations =  3.2

     negative rho (up, down):  1.775E-04 0.000E+00

     total cpu time spent up to now is       21.3 secs

     WARNING: integrated charge=    16.00000173, expected=    16.00000000

     total energy              =     -47.87452749 Ry
     estimated scf accuracy    <          7.2E-09 Ry

     iteration #  5     ecut=    60.00 Ry     beta= 0.70
     Davidson diagonalization with overlap
     c_bands:  4 eigenvalues not converged
     c_bands:  2 eigenvalues not converged
     ethr =  4.53E-11,  avg # of iterations = 17.5

     negative rho (up, down):  1.775E-04 0.000E+00

     total cpu time spent up to now is       22.2 secs

     WARNING: integrated charge=    16.00000169, expected=    16.00000000

     total energy              =     -47.87452769 Ry
     estimated scf accuracy    <       0.00000008 Ry

     iteration #  6     ecut=    60.00 Ry     beta= 0.70
     Davidson diagonalization with overlap
     ethr =  4.53E-11,  avg # of iterations =  4.0

     negative rho (up, down):  1.776E-04 0.000E+00

     total cpu time spent up to now is       22.6 secs

     WARNING: integrated charge=    16.00000173, expected=    16.00000000

     total energy              =     -47.87452769 Ry
     estimated scf accuracy    <          4.8E-09 Ry

     iteration #  7     ecut=    60.00 Ry     beta= 0.70
     Davidson diagonalization with overlap
     ethr =  3.00E-11,  avg # of iterations =  5.6

     negative rho (up, down):  1.776E-04 0.000E+00

     total cpu time spent up to now is       22.9 secs

     WARNING: integrated charge=    16.00000174, expected=    16.00000000

     total energy              =     -47.87452768 Ry
     estimated scf accuracy    <       0.00000005 Ry

     iteration #  8     ecut=    60.00 Ry     beta= 0.70
     Davidson diagonalization with overlap
     ethr =  3.00E-11,  avg # of iterations =  3.9

     negative rho (up, down):  1.776E-04 0.000E+00

     total cpu time spent up to now is       23.2 secs

     End of self-consistent calculation

          k = 0.0000 0.0000 0.0000 (  5565 PWs)   bands (ev):

   -20.1685 -20.0563  -8.6714  -7.8489  -3.7043  -3.7043  -3.6984  -3.6984
     2.1525   2.5115   2.9652   4.2136

          k = 0.0000 0.1443 0.0000 (  5582 PWs)   bands (ev):

   -19.7991 -19.6896  -8.2243  -7.4144  -5.0780  -5.0617  -4.4047  -4.3931
     2.6557   3.0174   3.4728   4.7187

          k = 0.0000 0.2887 0.0000 (  5566 PWs)   bands (ev):

   -18.7005 -18.5989  -8.0739  -8.0391  -6.9099  -6.1437  -5.7079  -5.6918
     4.1617   4.5247   4.9952   6.1971

          k = 0.0000 0.4330 0.0000 (  5594 PWs)   bands (ev):

   -16.9104 -16.8217 -11.3480 -11.2944  -6.7117  -6.6936  -4.8681  -4.2132
     2.9626   3.3776   6.6324   6.9168

          k =-0.0000-0.5773 0.0000 (  5604 PWs)   bands (ev):

   -14.8956 -14.8547 -13.8653 -13.8339  -7.0729  -7.0543  -3.1377  -2.8457
     0.9040   1.2147   6.7454   6.8961

          k = 0.1250 0.2165 0.0000 (  5559 PWs)   bands (ev):

   -19.0651 -18.9609  -7.3422  -6.8677  -6.8529  -6.5598  -5.7975  -5.7870
     3.6613   4.0269   4.4887   5.7269

          k = 0.1250 0.3608 0.0000 (  5578 PWs)   bands (ev):

   -17.6199 -17.5260  -9.6542  -9.6151  -7.3140  -7.2907  -5.6426  -4.9291
     4.4507   4.7287   5.6624   6.0419

          k = 0.1250 0.5052 0.0000 (  5571 PWs)   bands (ev):

   -15.5477 -15.4706 -12.6528 -12.5953  -8.0808  -8.0528  -3.4429  -2.9372
     1.4420   1.7890   8.2838   8.4467

          k = 0.2500 0.4330 0.0000 (  5528 PWs)   bands (ev):

   -15.8767 -15.7957 -11.1573 -11.1303  -9.5950  -9.5748  -3.6634  -3.0611
     2.0849   2.3282   8.1218   8.4221

          k = 0.2500 0.5773 0.0000 (  5540 PWs)   bands (ev):

   -13.9500 -13.9130 -13.0692 -13.0527 -10.3838 -10.3473  -1.7954  -1.5153
     0.3289   0.3701   9.9607  10.0265

     the Fermi energy is    -0.4161 ev

     WARNING: integrated charge=    16.00000174, expected=    16.00000000

!    total energy              =     -47.87452769 Ry
     estimated scf accuracy    <          2.1E-10 Ry
     smearing contrib. (-TS)   =       0.00000003 Ry
     internal energy E=F+TS    =     -47.87452772 Ry

     The total energy is F=E-TS. E is the sum of the following terms:
     one-electron contribution =    -523.26826074 Ry
     hartree contribution      =     265.21595178 Ry
     xc contribution           =     -16.65452757 Ry
     ewald contribution        =     226.83230880 Ry

     convergence has been achieved in   8 iterations

     negative rho (up, down):  1.776E-04 0.000E+00

     Forces acting on atoms (cartesian axes, Ry/au):

     atom    1 type  1   force =    -0.00000000    0.00000000    0.00103201
     atom    2 type  1   force =     0.00000000    0.00000000    0.00091441
     atom    3 type  1   force =    -0.00000000   -0.00000000   -0.00103201
     atom    4 type  1   force =     0.00000000    0.00000000   -0.00091441

     Total force =     0.001950     Total SCF correction =     0.000057


     Computing stress (Cartesian axis) and pressure


     negative rho (up, down):  1.776E-04 0.000E+00
          total   stress  (Ry/bohr**3)                   (kbar)     P=       -1.11
   0.00000052   0.00000000   0.00000000            0.08        0.00        0.00
   0.00000000   0.00000052   0.00000000            0.00        0.08        0.00
   0.00000000   0.00000000  -0.00002369            0.00        0.00       -3.48

     Energy error            =      4.0E-06 Ry
     Gradient error          =      1.0E-03 Ry/Bohr
     Cell gradient error     =      7.7E-02 kbar

     number of scf cycles    =   2
     number of bfgs steps    =   1

     enthalpy           old  =     -47.8745237242 Ry
     enthalpy           new  =     -47.8745276942 Ry

     CASE: enthalpy          _new < enthalpy          _old


     WARNING: bfgs curvature condition failed, Theta= 0.834
     new trust radius        =       0.0012590676 bohr
     new conv_thr            =            1.0E-11 Ry

     new unit-cell volume =    709.71888 a.u.^3 (   105.16949 Ang^3 )
     density =      0.75856 g/cm^3

CELL_PARAMETERS (alat=  4.65610675)
   1.000093268  -0.000000000   0.000000000
  -0.500046634   0.866106176   0.000000000
   0.000000000   0.000000000   8.117194158

ATOMIC_POSITIONS (crystal)
C            -0.0000000000        0.0000000000        0.4125635985
C             0.3333333330        0.6666666660        0.4125459309
C            -0.0000000000       -0.0000000000        0.5874364015
C             0.6666666660        0.3333333330        0.5874540691



     Writing config-only to output data dir ../tmp/gr.save/
     NEW-OLD atomic charge density approx. for the potential

     Check: negative core charge=   -0.000004

     negative rho (up, down):  1.778E-04 0.000E+00
     extrapolated charge   16.00134, renormalised to   16.00000

     total cpu time spent up to now is       24.0 secs

     Self-consistent Calculation

     iteration #  1     ecut=    60.00 Ry     beta= 0.70
     Davidson diagonalization with overlap
     ethr =  1.00E-06,  avg # of iterations =  2.0

     Threshold (ethr) on eigenvalues was too large:
     Diagonalizing with lowered threshold

     Davidson diagonalization with overlap
     ethr =  3.89E-08,  avg # of iterations =  4.4

     negative rho (up, down):  1.773E-04 0.000E+00

     total cpu time spent up to now is       24.6 secs

     total energy              =     -47.87452987 Ry
     estimated scf accuracy    <       0.00000137 Ry

     iteration #  2     ecut=    60.00 Ry     beta= 0.70
     Davidson diagonalization with overlap
     ethr =  8.56E-09,  avg # of iterations =  5.4

     negative rho (up, down):  1.774E-04 0.000E+00

     total cpu time spent up to now is       25.0 secs

     total energy              =     -47.87453174 Ry
     estimated scf accuracy    <       0.00000552 Ry

     iteration #  3     ecut=    60.00 Ry     beta= 0.70
     Davidson diagonalization with overlap
     ethr =  8.56E-09,  avg # of iterations =  2.6

     negative rho (up, down):  1.773E-04 0.000E+00

     total cpu time spent up to now is       25.2 secs

     WARNING: integrated charge=    16.00000162, expected=    16.00000000

     total energy              =     -47.87453157 Ry
     estimated scf accuracy    <       0.00000114 Ry

     iteration #  4     ecut=    60.00 Ry     beta= 0.70
     Davidson diagonalization with overlap
     ethr =  7.10E-09,  avg # of iterations =  3.4

     negative rho (up, down):  1.773E-04 0.000E+00

     total cpu time spent up to now is       25.5 secs

     WARNING: integrated charge=    16.00000172, expected=    16.00000000

     total energy              =     -47.87453196 Ry
     estimated scf accuracy    <          5.5E-09 Ry

     iteration #  5     ecut=    60.00 Ry     beta= 0.70
     Davidson diagonalization with overlap
     ethr =  3.45E-11,  avg # of iterations = 14.2

     negative rho (up, down):  1.774E-04 0.000E+00

     total cpu time spent up to now is       26.2 secs

     WARNING: integrated charge=    16.00000171, expected=    16.00000000

     total energy              =     -47.87453203 Ry
     estimated scf accuracy    <       0.00000002 Ry

     iteration #  6     ecut=    60.00 Ry     beta= 0.70
     Davidson diagonalization with overlap
     ethr =  3.45E-11,  avg # of iterations =  4.2

     negative rho (up, down):  1.774E-04 0.000E+00

     total cpu time spent up to now is       26.5 secs

     WARNING: integrated charge=    16.00000174, expected=    16.00000000

     total energy              =     -47.87453204 Ry
     estimated scf accuracy    <          1.2E-09 Ry

     iteration #  7     ecut=    60.00 Ry     beta= 0.70
     Davidson diagonalization with overlap
     ethr =  7.67E-12,  avg # of iterations =  3.9

     negative rho (up, down):  1.774E-04 0.000E+00

     total cpu time spent up to now is       26.9 secs

     WARNING: integrated charge=    16.00000175, expected=    16.00000000

     total energy              =     -47.87453203 Ry
     estimated scf accuracy    <          3.7E-09 Ry

     iteration #  8     ecut=    60.00 Ry     beta= 0.70
     Davidson diagonalization with overlap
     ethr =  7.67E-12,  avg # of iterations =  2.8

     negative rho (up, down):  1.774E-04 0.000E+00

     total cpu time spent up to now is       27.1 secs

     WARNING: integrated charge=    16.00000175, expected=    16.00000000

     total energy              =     -47.87453204 Ry
     estimated scf accuracy    <          7.0E-11 Ry

     iteration #  9     ecut=    60.00 Ry     beta= 0.70
     Davidson diagonalization with overlap
     ethr =  4.38E-13,  avg # of iterations =  7.5

     negative rho (up, down):  1.774E-04 0.000E+00

     total cpu time spent up to now is       27.6 secs

     WARNING: integrated charge=    16.00000175, expected=    16.00000000

     total energy              =     -47.87453204 Ry
     estimated scf accuracy    <          7.8E-10 Ry

     iteration # 10     ecut=    60.00 Ry     beta= 0.70
     Davidson diagonalization with overlap
     ethr =  4.38E-13,  avg # of iterations =  4.1

     negative rho (up, down):  1.774E-04 0.000E+00

     total cpu time spent up to now is       27.9 secs

     WARNING: integrated charge=    16.00000175, expected=    16.00000000

     total energy              =     -47.87453204 Ry
     estimated scf accuracy    <          2.6E-11 Ry

     iteration # 11     ecut=    60.00 Ry     beta= 0.70
     Davidson diagonalization with overlap
     ethr =  1.64E-13,  avg # of iterations =  2.5

     negative rho (up, down):  1.774E-04 0.000E+00

     total cpu time spent up to now is       28.2 secs

     WARNING: integrated charge=    16.00000175, expected=    16.00000000

     total energy              =     -47.87453204 Ry
     estimated scf accuracy    <          1.9E-11 Ry

     iteration # 12     ecut=    60.00 Ry     beta= 0.70
     Davidson diagonalization with overlap
     ethr =  1.18E-13,  avg # of iterations =  1.1

     negative rho (up, down):  1.774E-04 0.000E+00

     total cpu time spent up to now is       28.4 secs

     End of self-consistent calculation

          k = 0.0000 0.0000 0.0000 (  5565 PWs)   bands (ev):

   -20.1683 -20.0558  -8.6719  -7.8479  -3.7050  -3.7050  -3.6990  -3.6990
     2.1540   2.5135   2.9661   4.2156

          k = 0.0000 0.1443 0.0000 (  5582 PWs)   bands (ev):

   -19.7989 -19.6891  -8.2248  -7.4135  -5.0786  -5.0623  -4.4053  -4.3937
     2.6572   3.0194   3.4737   4.7205

          k = 0.0000 0.2886 0.0000 (  5566 PWs)   bands (ev):

   -18.7004 -18.5985  -8.0744  -8.0395  -6.9106  -6.1429  -5.7083  -5.6922
     4.1630   4.5264   4.9960   6.1978

          k = 0.0000 0.4330 0.0000 (  5594 PWs)   bands (ev):

   -16.9104 -16.8214 -11.3483 -11.2945  -6.7120  -6.6939  -4.8689  -4.2128
     2.9613   3.3769   6.6331   6.9154

          k =-0.0000-0.5773 0.0000 (  5604 PWs)   bands (ev):

   -14.8959 -14.8549 -13.8651 -13.8337  -7.0732  -7.0545  -3.1385  -2.8459
     0.9033   1.2142   6.7433   6.8944

          k = 0.1250 0.2165 0.0000 (  5559 PWs)   bands (ev):

   -19.0650 -18.9605  -7.3428  -6.8682  -6.8534  -6.5590  -5.7979  -5.7874
     3.6627   4.0287   4.4895   5.7287

          k = 0.1250 0.3608 0.0000 (  5578 PWs)   bands (ev):

   -17.6198 -17.5257  -9.6546  -9.6154  -7.3143  -7.2909  -5.6433  -4.9286
     4.4492   4.7278   5.6634   6.0432

          k = 0.1250 0.5051 0.0000 (  5571 PWs)   bands (ev):

   -15.5478 -15.4705 -12.6530 -12.5953  -8.0811  -8.0529  -3.4437  -2.9371
     1.4409   1.7884   8.2817   8.4451

          k = 0.2500 0.4330 0.0000 (  5528 PWs)   bands (ev):

   -15.8768 -15.7955 -11.1577 -11.1306  -9.5950  -9.5748  -3.6643  -3.0608
     2.0836   2.3275   8.1224   8.4229

          k = 0.2500 0.5773 0.0000 (  5540 PWs)   bands (ev):

   -13.9503 -13.9132 -13.0693 -13.0528 -10.3838 -10.3472  -1.7964  -1.5156
     0.3281   0.3697   9.9599  10.0259

     the Fermi energy is    -0.4166 ev

     WARNING: integrated charge=    16.00000175, expected=    16.00000000

!    total energy              =     -47.87453204 Ry
     estimated scf accuracy    <          8.2E-12 Ry
     smearing contrib. (-TS)   =       0.00000003 Ry
     internal energy E=F+TS    =     -47.87453206 Ry

     The total energy is F=E-TS. E is the sum of the following terms:
     one-electron contribution =    -523.34692233 Ry
     hartree contribution      =     265.25495564 Ry
     xc contribution           =     -16.65418329 Ry
     ewald contribution        =     226.87161792 Ry

     convergence has been achieved in  12 iterations

     negative rho (up, down):  1.774E-04 0.000E+00

     Forces acting on atoms (cartesian axes, Ry/au):

     atom    1 type  1   force =     0.00000000    0.00000000    0.00091304
     atom    2 type  1   force =     0.00000000    0.00000000    0.00100280
     atom    3 type  1   force =     0.00000000    0.00000000   -0.00091304
     atom    4 type  1   force =     0.00000000    0.00000000   -0.00100280

     Total force =     0.001918     Total SCF correction =     0.000013


     Computing stress (Cartesian axis) and pressure


     negative rho (up, down):  1.774E-04 0.000E+00
          total   stress  (Ry/bohr**3)                   (kbar)     P=       -1.22
  -0.00000067  -0.00000000   0.00000000           -0.10       -0.00        0.00
  -0.00000000  -0.00000067   0.00000000           -0.00       -0.10        0.00
   0.00000000   0.00000000  -0.00002359            0.00        0.00       -3.47

     Energy error            =      4.3E-06 Ry
     Gradient error          =      1.0E-03 Ry/Bohr
     Cell gradient error     =      9.9E-02 kbar

     number of scf cycles    =   3
     number of bfgs steps    =   2

     enthalpy           old  =     -47.8745276942 Ry
     enthalpy           new  =     -47.8745320356 Ry

     CASE: enthalpy          _new < enthalpy          _old

     new trust radius        =       0.0018886014 bohr
     new conv_thr            =            1.0E-11 Ry

     new unit-cell volume =    709.77467 a.u.^3 (   105.17775 Ang^3 )
     density =      0.75850 g/cm^3

CELL_PARAMETERS (alat=  4.65610675)
   1.000132575  -0.000000000   0.000000000
  -0.500066288   0.866140217   0.000000000
   0.000000000   0.000000000   8.117194158

ATOMIC_POSITIONS (crystal)
C             0.0000000000        0.0000000000        0.4126135687
C             0.3333333330        0.6666666660        0.4125881745
C             0.0000000000        0.0000000000        0.5873864313
C             0.6666666660        0.3333333330        0.5874118255



     Writing config-only to output data dir ../tmp/gr.save/
     NEW-OLD atomic charge density approx. for the potential

     Check: negative core charge=   -0.000004

     negative rho (up, down):  1.778E-04 0.000E+00
     extrapolated charge   16.00126, renormalised to   16.00000

     total cpu time spent up to now is       29.2 secs

     Self-consistent Calculation

     iteration #  1     ecut=    60.00 Ry     beta= 0.70
     Davidson diagonalization with overlap
     ethr =  1.00E-06,  avg # of iterations =  3.5

     Threshold (ethr) on eigenvalues was too large:
     Diagonalizing with lowered threshold

     Davidson diagonalization with overlap
     ethr =  2.36E-08,  avg # of iterations =  4.9

     negative rho (up, down):  1.770E-04 0.000E+00

     total cpu time spent up to now is       29.8 secs

     total energy              =     -47.87453748 Ry
     estimated scf accuracy    <       0.00000153 Ry

     iteration #  2     ecut=    60.00 Ry     beta= 0.70
     Davidson diagonalization with overlap
     ethr =  9.53E-09,  avg # of iterations =  4.2

     negative rho (up, down):  1.771E-04 0.000E+00

     total cpu time spent up to now is       30.1 secs

     total energy              =     -47.87453827 Ry
     estimated scf accuracy    <       0.00000191 Ry

     iteration #  3     ecut=    60.00 Ry     beta= 0.70
     Davidson diagonalization with overlap
     ethr =  9.53E-09,  avg # of iterations =  2.0

     negative rho (up, down):  1.770E-04 0.000E+00

     total cpu time spent up to now is       30.4 secs

     WARNING: integrated charge=    16.00000166, expected=    16.00000000

     total energy              =     -47.87453846 Ry
     estimated scf accuracy    <       0.00000015 Ry

     iteration #  4     ecut=    60.00 Ry     beta= 0.70
     Davidson diagonalization with overlap
     ethr =  9.45E-10,  avg # of iterations =  4.4

     negative rho (up, down):  1.771E-04 0.000E+00

     total cpu time spent up to now is       30.7 secs

     WARNING: integrated charge=    16.00000174, expected=    16.00000000

     total energy              =     -47.87453858 Ry
     estimated scf accuracy    <       0.00000003 Ry

     iteration #  5     ecut=    60.00 Ry     beta= 0.70
     Davidson diagonalization with overlap
     ethr =  1.57E-10,  avg # of iterations =  4.5

     negative rho (up, down):  1.770E-04 0.000E+00

     total cpu time spent up to now is       31.0 secs

     WARNING: integrated charge=    16.00000175, expected=    16.00000000

     total energy              =     -47.87453860 Ry
     estimated scf accuracy    <          8.8E-09 Ry

     iteration #  6     ecut=    60.00 Ry     beta= 0.70
     Davidson diagonalization with overlap
     ethr =  5.49E-11,  avg # of iterations =  3.4

     negative rho (up, down):  1.770E-04 0.000E+00

     total cpu time spent up to now is       31.3 secs

     WARNING: integrated charge=    16.00000176, expected=    16.00000000

     total energy              =     -47.87453860 Ry
     estimated scf accuracy    <          1.8E-10 Ry

     iteration #  7     ecut=    60.00 Ry     beta= 0.70
     Davidson diagonalization with overlap
     ethr =  1.11E-12,  avg # of iterations = 11.9

     negative rho (up, down):  1.770E-04 0.000E+00

     total cpu time spent up to now is       31.9 secs

     WARNING: integrated charge=    16.00000176, expected=    16.00000000

     total energy              =     -47.87453860 Ry
     estimated scf accuracy    <          1.1E-10 Ry

     iteration #  8     ecut=    60.00 Ry     beta= 0.70
     Davidson diagonalization with overlap
     ethr =  7.14E-13,  avg # of iterations =  2.8

     negative rho (up, down):  1.771E-04 0.000E+00

     total cpu time spent up to now is       32.2 secs

     End of self-consistent calculation

          k = 0.0000 0.0000 0.0000 (  5565 PWs)   bands (ev):

   -20.1682 -20.0552  -8.6728  -7.8466  -3.7056  -3.7056  -3.6996  -3.6996
     2.1554   2.5148   2.9695   4.2206

          k = 0.0000 0.1443 0.0000 (  5582 PWs)   bands (ev):

   -19.7989 -19.6886  -8.2257  -7.4122  -5.0792  -5.0628  -4.4059  -4.3942
     2.6585   3.0205   3.4771   4.7255

          k = 0.0000 0.2886 0.0000 (  5566 PWs)   bands (ev):

   -18.7004 -18.5980  -8.0749  -8.0398  -6.9116  -6.1418  -5.7088  -5.6925
     4.1640   4.5274   4.9995   6.2019

          k = 0.0000 0.4330 0.0000 (  5594 PWs)   bands (ev):

   -16.9105 -16.8211 -11.3486 -11.2945  -6.7124  -6.6941  -4.8701  -4.2121
     2.9598   3.3765   6.6335   6.9138

          k =-0.0000-0.5773 0.0000 (  5604 PWs)   bands (ev):

   -14.8962 -14.8550 -13.8650 -13.8335  -7.0735  -7.0547  -3.1396  -2.8459
     0.9026   1.2138   6.7412   6.8929

          k = 0.1250 0.2165 0.0000 (  5559 PWs)   bands (ev):

   -19.0650 -18.9600  -7.3438  -6.8688  -6.8539  -6.5579  -5.7983  -5.7878
     3.6638   4.0297   4.4930   5.7336

          k = 0.1250 0.3608 0.0000 (  5578 PWs)   bands (ev):

   -17.6199 -17.5253  -9.6550  -9.6156  -7.3147  -7.2911  -5.6444  -4.9277
     4.4475   4.7270   5.6643   6.0439

          k = 0.1250 0.5051 0.0000 (  5571 PWs)   bands (ev):

   -15.5480 -15.4704 -12.6532 -12.5952  -8.0814  -8.0531  -3.4449  -2.9367
     1.4397   1.7881   8.2796   8.4436

          k = 0.2500 0.4330 0.0000 (  5528 PWs)   bands (ev):

   -15.8769 -15.7953 -11.1581 -11.1309  -9.5950  -9.5747  -3.6655  -3.0603
     2.0822   2.3270   8.1228   8.4229

          k = 0.2500 0.5773 0.0000 (  5540 PWs)   bands (ev):

   -13.9506 -13.9134 -13.0694 -13.0528 -10.3838 -10.3471  -1.7976  -1.5158
     0.3272   0.3693   9.9589  10.0255

     the Fermi energy is    -0.4171 ev

     WARNING: integrated charge=    16.00000176, expected=    16.00000000

!    total energy              =     -47.87453860 Ry
     estimated scf accuracy    <          7.6E-12 Ry
     smearing contrib. (-TS)   =       0.00000003 Ry
     internal energy E=F+TS    =     -47.87453863 Ry

     The total energy is F=E-TS. E is the sum of the following terms:
     one-electron contribution =    -523.49918890 Ry
     hartree contribution      =     265.33079536 Ry
     xc contribution           =     -16.65387630 Ry
     ewald contribution        =     226.94773122 Ry

     convergence has been achieved in   8 iterations

     negative rho (up, down):  1.771E-04 0.000E+00

     Forces acting on atoms (cartesian axes, Ry/au):

     atom    1 type  1   force =     0.00000000    0.00000000    0.00080568
     atom    2 type  1   force =     0.00000000    0.00000000    0.00109014
     atom    3 type  1   force =     0.00000000    0.00000000   -0.00080568
     atom    4 type  1   force =     0.00000000    0.00000000   -0.00109014

     Total force =     0.001917     Total SCF correction =     0.000010


     Computing stress (Cartesian axis) and pressure


     negative rho (up, down):  1.771E-04 0.000E+00
          total   stress  (Ry/bohr**3)                   (kbar)     P=       -1.33
  -0.00000179  -0.00000000  -0.00000000           -0.26       -0.00       -0.00
  -0.00000000  -0.00000179  -0.00000000           -0.00       -0.26       -0.00
   0.00000000   0.00000000  -0.00002346            0.00        0.00       -3.45

     Energy error            =      6.6E-06 Ry
     Gradient error          =      1.1E-03 Ry/Bohr
     Cell gradient error     =      2.6E-01 kbar

     number of scf cycles    =   4
     number of bfgs steps    =   3

     enthalpy           old  =     -47.8745320356 Ry
     enthalpy           new  =     -47.8745386009 Ry

     CASE: enthalpy          _new < enthalpy          _old

     new trust radius        =       0.0028329021 bohr
     new conv_thr            =            1.0E-11 Ry

     new unit-cell volume =    709.83220 a.u.^3 (   105.18628 Ang^3 )
     density =      0.75843 g/cm^3

CELL_PARAMETERS (alat=  4.65610675)
   1.000173108  -0.000000000   0.000000000
  -0.500086554   0.866175320   0.000000000
   0.000000000   0.000000000   8.117194158

ATOMIC_POSITIONS (crystal)
C             0.0000000000        0.0000000000        0.4126885241
C             0.3333333330        0.6666666660        0.4126550121
C             0.0000000000        0.0000000000        0.5873114759
C             0.6666666660        0.3333333330        0.5873449879



     Writing config-only to output data dir ../tmp/gr.save/
     NEW-OLD atomic charge density approx. for the potential

     Check: negative core charge=   -0.000003

     negative rho (up, down):  1.778E-04 0.000E+00
     extrapolated charge   16.00130, renormalised to   16.00000

     total cpu time spent up to now is       32.9 secs

     Self-consistent Calculation

     iteration #  1     ecut=    60.00 Ry     beta= 0.70
     Davidson diagonalization with overlap
     ethr =  1.00E-06,  avg # of iterations =  4.1

     Threshold (ethr) on eigenvalues was too large:
     Diagonalizing with lowered threshold

     Davidson diagonalization with overlap
     ethr =  1.93E-08,  avg # of iterations =  6.9

     negative rho (up, down):  1.767E-04 0.000E+00

     total cpu time spent up to now is       33.6 secs

     total energy              =     -47.87454766 Ry
     estimated scf accuracy    <       0.00000330 Ry

     iteration #  2     ecut=    60.00 Ry     beta= 0.70
     Davidson diagonalization with overlap
     ethr =  2.06E-08,  avg # of iterations =  2.6

     negative rho (up, down):  1.768E-04 0.000E+00

     total cpu time spent up to now is       33.9 secs

     WARNING: integrated charge=    16.00000161, expected=    16.00000000

     total energy              =     -47.87454811 Ry
     estimated scf accuracy    <       0.00000062 Ry

     iteration #  3     ecut=    60.00 Ry     beta= 0.70
     Davidson diagonalization with overlap
     ethr =  3.89E-09,  avg # of iterations =  4.2

     negative rho (up, down):  1.767E-04 0.000E+00

     total cpu time spent up to now is       34.2 secs

     WARNING: integrated charge=    16.00000168, expected=    16.00000000

     total energy              =     -47.87454843 Ry
     estimated scf accuracy    <       0.00000040 Ry

     iteration #  4     ecut=    60.00 Ry     beta= 0.70
     Davidson diagonalization with overlap
     ethr =  2.47E-09,  avg # of iterations =  2.2

     negative rho (up, down):  1.766E-04 0.000E+00

     total cpu time spent up to now is       34.4 secs

     WARNING: integrated charge=    16.00000177, expected=    16.00000000

     total energy              =     -47.87454851 Ry
     estimated scf accuracy    <       0.00000002 Ry

     iteration #  5     ecut=    60.00 Ry     beta= 0.70
     Davidson diagonalization with overlap
     ethr =  9.45E-11,  avg # of iterations = 10.5

     negative rho (up, down):  1.766E-04 0.000E+00

     total cpu time spent up to now is       35.0 secs

     WARNING: integrated charge=    16.00000177, expected=    16.00000000

     total energy              =     -47.87454859 Ry
     estimated scf accuracy    <       0.00000004 Ry

     iteration #  6     ecut=    60.00 Ry     beta= 0.70
     Davidson diagonalization with overlap
     ethr =  9.45E-11,  avg # of iterations =  1.2

     negative rho (up, down):  1.765E-04 0.000E+00

     total cpu time spent up to now is       35.3 secs

     WARNING: integrated charge=    16.00000177, expected=    16.00000000

     total energy              =     -47.87454858 Ry
     estimated scf accuracy    <       0.00000002 Ry

     iteration #  7     ecut=    60.00 Ry     beta= 0.70
     Davidson diagonalization with overlap
     ethr =  9.45E-11,  avg # of iterations =  4.0

     negative rho (up, down):  1.765E-04 0.000E+00

     total cpu time spent up to now is       35.6 secs

     WARNING: integrated charge=    16.00000178, expected=    16.00000000

     total energy              =     -47.87454859 Ry
     estimated scf accuracy    <          6.0E-09 Ry

     iteration #  8     ecut=    60.00 Ry     beta= 0.70
     Davidson diagonalization with overlap
     ethr =  3.78E-11,  avg # of iterations =  1.9

     negative rho (up, down):  1.766E-04 0.000E+00

     total cpu time spent up to now is       35.8 secs

     WARNING: integrated charge=    16.00000178, expected=    16.00000000

     total energy              =     -47.87454859 Ry
     estimated scf accuracy    <          6.3E-10 Ry

     iteration #  9     ecut=    60.00 Ry     beta= 0.70
     Davidson diagonalization with overlap
     ethr =  3.91E-12,  avg # of iterations =  5.5

     negative rho (up, down):  1.766E-04 0.000E+00

     total cpu time spent up to now is       36.2 secs

     WARNING: integrated charge=    16.00000178, expected=    16.00000000

     total energy              =     -47.87454859 Ry
     estimated scf accuracy    <          1.5E-11 Ry

     iteration # 10     ecut=    60.00 Ry     beta= 0.70
     Davidson diagonalization with overlap
     ethr =  1.00E-13,  avg # of iterations = 10.0

     negative rho (up, down):  1.765E-04 0.000E+00

     total cpu time spent up to now is       36.8 secs

     WARNING: integrated charge=    16.00000178, expected=    16.00000000

     total energy              =     -47.87454859 Ry
     estimated scf accuracy    <          2.7E-10 Ry

     iteration # 11     ecut=    60.00 Ry     beta= 0.70
     Davidson diagonalization with overlap
     ethr =  1.00E-13,  avg # of iterations =  4.1

     negative rho (up, down):  1.765E-04 0.000E+00

     total cpu time spent up to now is       37.1 secs

     WARNING: integrated charge=    16.00000178, expected=    16.00000000

     total energy              =     -47.87454859 Ry
     estimated scf accuracy    <          2.0E-11 Ry

     iteration # 12     ecut=    60.00 Ry     beta= 0.70
     Davidson diagonalization with overlap
     ethr =  1.00E-13,  avg # of iterations =  4.0

     negative rho (up, down):  1.765E-04 0.000E+00

     total cpu time spent up to now is       37.4 secs

     WARNING: integrated charge=    16.00000178, expected=    16.00000000

     total energy              =     -47.87454859 Ry
     estimated scf accuracy    <          1.1E-11 Ry

     iteration # 13     ecut=    60.00 Ry     beta= 0.70
     Davidson diagonalization with overlap
     ethr =  1.00E-13,  avg # of iterations =  2.0

     negative rho (up, down):  1.765E-04 0.000E+00

     total cpu time spent up to now is       37.6 secs

     End of self-consistent calculation

          k = 0.0000 0.0000 0.0000 (  5565 PWs)   bands (ev):

   -20.1683 -20.0545  -8.6743  -7.8446  -3.7063  -3.7063  -3.7003  -3.7003
     2.1546   2.5132   2.9699   4.2192

          k = 0.0000 0.1443 0.0000 (  5582 PWs)   bands (ev):

   -19.7989 -19.6879  -8.2272  -7.4103  -5.0799  -5.0633  -4.4065  -4.3947
     2.6577   3.0189   3.4775   4.7240

          k = 0.0000 0.2886 0.0000 (  5566 PWs)   bands (ev):

   -18.7005 -18.5975  -8.0754  -8.0400  -6.9132  -6.1402  -5.7092  -5.6929
     4.1632   4.5257   4.9997   6.1998

          k = 0.0000 0.4329 0.0000 (  5594 PWs)   bands (ev):

   -16.9107 -16.8208 -11.3490 -11.2945  -6.7127  -6.6943  -4.8717  -4.2109
     2.9579   3.3763   6.6327   6.9115

          k =-0.0000-0.5773 0.0000 (  5604 PWs)   bands (ev):

   -14.8966 -14.8551 -13.8650 -13.8332  -7.0739  -7.0549  -3.1409  -2.8457
     0.9016   1.2136   6.7389   6.8915

          k = 0.1250 0.2165 0.0000 (  5559 PWs)   bands (ev):

   -19.0651 -18.9594  -7.3454  -6.8694  -6.8543  -6.5561  -5.7988  -5.7881
     3.6630   4.0281   4.4933   5.7320

          k = 0.1250 0.3608 0.0000 (  5578 PWs)   bands (ev):

   -17.6201 -17.5248  -9.6555  -9.6158  -7.3150  -7.2913  -5.6461  -4.9263
     4.4455   4.7264   5.6635   6.0421

          k = 0.1250 0.5051 0.0000 (  5571 PWs)   bands (ev):

   -15.5483 -15.4702 -12.6535 -12.5951  -8.0817  -8.0532  -3.4465  -2.9360
     1.4383   1.7880   8.2772   8.4423

          k = 0.2500 0.4329 0.0000 (  5528 PWs)   bands (ev):

   -15.8772 -15.7951 -11.1585 -11.1311  -9.5951  -9.5746  -3.6672  -3.0593
     2.0805   2.3267   8.1220   8.4210

          k = 0.2500 0.5773 0.0000 (  5540 PWs)   bands (ev):

   -13.9510 -13.9135 -13.0695 -13.0528 -10.3839 -10.3470  -1.7991  -1.5159
     0.3263   0.3689   9.9576  10.0253

     the Fermi energy is    -0.4175 ev

     WARNING: integrated charge=    16.00000178, expected=    16.00000000

!    total energy              =     -47.87454859 Ry
     estimated scf accuracy    <          8.0E-13 Ry
     smearing contrib. (-TS)   =       0.00000003 Ry
     internal energy E=F+TS    =     -47.87454861 Ry

     The total energy is F=E-TS. E is the sum of the following terms:
     one-electron contribution =    -523.75451448 Ry
     hartree contribution      =     265.45813686 Ry
     xc contribution           =     -16.65358085 Ry
     ewald contribution        =     227.07540986 Ry

     convergence has been achieved in  13 iterations

     negative rho (up, down):  1.765E-04 0.000E+00

     Forces acting on atoms (cartesian axes, Ry/au):

     atom    1 type  1   force =    -0.00000000   -0.00000000    0.00070073
     atom    2 type  1   force =    -0.00000000   -0.00000000    0.00118610
     atom    3 type  1   force =     0.00000000    0.00000000   -0.00070073
     atom    4 type  1   force =    -0.00000000   -0.00000000   -0.00118610

     Total force =     0.001948     Total SCF correction =     0.000004


     Computing stress (Cartesian axis) and pressure


     negative rho (up, down):  1.765E-04 0.000E+00
          total   stress  (Ry/bohr**3)                   (kbar)     P=       -1.43
  -0.00000296  -0.00000000   0.00000000           -0.44       -0.00        0.00
  -0.00000000  -0.00000296   0.00000000           -0.00       -0.44        0.00
   0.00000000   0.00000000  -0.00002328            0.00        0.00       -3.43

     Energy error            =      1.0E-05 Ry
     Gradient error          =      1.2E-03 Ry/Bohr
     Cell gradient error     =      4.4E-01 kbar

     number of scf cycles    =   5
     number of bfgs steps    =   4

     enthalpy           old  =     -47.8745386009 Ry
     enthalpy           new  =     -47.8745485880 Ry

     CASE: enthalpy          _new < enthalpy          _old

     new trust radius        =       0.0042493531 bohr
     new conv_thr            =            1.0E-11 Ry

     new unit-cell volume =    709.89575 a.u.^3 (   105.19570 Ang^3 )
     density =      0.75837 g/cm^3

CELL_PARAMETERS (alat=  4.65610675)
   1.000217879  -0.000000000   0.000000000
  -0.500108940   0.866214093   0.000000000
   0.000000000   0.000000000   8.117194158

ATOMIC_POSITIONS (crystal)
C             0.0000000000       -0.0000000000        0.4128009571
C             0.3333333330        0.6666666660        0.4127582112
C             0.0000000000        0.0000000000        0.5871990429
C             0.6666666660        0.3333333330        0.5872417888



     Writing config-only to output data dir ../tmp/gr.save/
     NEW-OLD atomic charge density approx. for the potential

     Check: negative core charge=   -0.000003

     negative rho (up, down):  1.779E-04 0.000E+00
     extrapolated charge   16.00143, renormalised to   16.00000

     total cpu time spent up to now is       38.4 secs

     Self-consistent Calculation

     iteration #  1     ecut=    60.00 Ry     beta= 0.70
     Davidson diagonalization with overlap
     ethr =  1.00E-06,  avg # of iterations =  5.2

     Threshold (ethr) on eigenvalues was too large:
     Diagonalizing with lowered threshold

     Davidson diagonalization with overlap
     ethr =  4.05E-08,  avg # of iterations =  4.1

     negative rho (up, down):  1.761E-04 0.000E+00

     total cpu time spent up to now is       39.0 secs

     total energy              =     -47.87456190 Ry
     estimated scf accuracy    <       0.00000845 Ry

     iteration #  2     ecut=    60.00 Ry     beta= 0.70
     Davidson diagonalization with overlap
     ethr =  5.28E-08,  avg # of iterations =  1.7

     negative rho (up, down):  1.759E-04 0.000E+00

     total cpu time spent up to now is       39.2 secs

     WARNING: integrated charge=    16.00000169, expected=    16.00000000

     total energy              =     -47.87456298 Ry
     estimated scf accuracy    <       0.00000030 Ry

     iteration #  3     ecut=    60.00 Ry     beta= 0.70
     Davidson diagonalization with overlap
     ethr =  1.86E-09,  avg # of iterations =  7.7

     negative rho (up, down):  1.759E-04 0.000E+00

     total cpu time spent up to now is       39.7 secs

     WARNING: integrated charge=    16.00000169, expected=    16.00000000

     total energy              =     -47.87456357 Ry
     estimated scf accuracy    <       0.00000040 Ry

     iteration #  4     ecut=    60.00 Ry     beta= 0.70
     Davidson diagonalization with overlap
     ethr =  1.86E-09,  avg # of iterations =  2.0

     negative rho (up, down):  1.759E-04 0.000E+00

     total cpu time spent up to now is       40.0 secs

     WARNING: integrated charge=    16.00000179, expected=    16.00000000

     total energy              =     -47.87456357 Ry
     estimated scf accuracy    <       0.00000006 Ry

     iteration #  5     ecut=    60.00 Ry     beta= 0.70
     Davidson diagonalization with overlap
     ethr =  3.89E-10,  avg # of iterations =  5.8

     negative rho (up, down):  1.759E-04 0.000E+00

     total cpu time spent up to now is       40.4 secs

     WARNING: integrated charge=    16.00000178, expected=    16.00000000

     total energy              =     -47.87456357 Ry
     estimated scf accuracy    <       0.00000030 Ry

     iteration #  6     ecut=    60.00 Ry     beta= 0.70
     Davidson diagonalization with overlap
     ethr =  3.89E-10,  avg # of iterations =  4.0

     negative rho (up, down):  1.758E-04 0.000E+00

     total cpu time spent up to now is       40.7 secs

     WARNING: integrated charge=    16.00000180, expected=    16.00000000

     total energy              =     -47.87456363 Ry
     estimated scf accuracy    <          2.6E-10 Ry

     iteration #  7     ecut=    60.00 Ry     beta= 0.70
     Davidson diagonalization with overlap
     ethr =  1.60E-12,  avg # of iterations = 11.9

     negative rho (up, down):  1.758E-04 0.000E+00

     total cpu time spent up to now is       41.3 secs

     WARNING: integrated charge=    16.00000180, expected=    16.00000000

     total energy              =     -47.87456363 Ry
     estimated scf accuracy    <          9.8E-11 Ry

     iteration #  8     ecut=    60.00 Ry     beta= 0.70
     Davidson diagonalization with overlap
     ethr =  6.13E-13,  avg # of iterations =  2.6

     negative rho (up, down):  1.758E-04 0.000E+00

     total cpu time spent up to now is       41.6 secs

     WARNING: integrated charge=    16.00000180, expected=    16.00000000

     total energy              =     -47.87456363 Ry
     estimated scf accuracy    <          1.0E-10 Ry

     iteration #  9     ecut=    60.00 Ry     beta= 0.70
     Davidson diagonalization with overlap
     ethr =  6.13E-13,  avg # of iterations =  1.5

     negative rho (up, down):  1.759E-04 0.000E+00

     total cpu time spent up to now is       41.8 secs

     End of self-consistent calculation

          k = 0.0000 0.0000 0.0000 (  5565 PWs)   bands (ev):

   -20.1686 -20.0537  -8.6767  -7.8418  -3.7071  -3.7071  -3.7010  -3.7010
     2.1575   2.5164   2.9714   4.2214

          k = 0.0000 0.1443 0.0000 (  5582 PWs)   bands (ev):

   -19.7993 -19.6871  -8.2296  -7.4076  -5.0807  -5.0639  -4.4072  -4.3953
     2.6605   3.0221   3.4790   4.7262

          k = 0.0000 0.2886 0.0000 (  5566 PWs)   bands (ev):

   -18.7009 -18.5968  -8.0761  -8.0404  -6.9157  -6.1377  -5.7099  -5.6933
     4.1657   4.5285   5.0013   6.2016

          k = 0.0000 0.4329 0.0000 (  5594 PWs)   bands (ev):

   -16.9112 -16.8203 -11.3496 -11.2945  -6.7132  -6.6946  -4.8742  -4.2090
     2.9554   3.3765   6.6345   6.9097

          k =-0.0000-0.5772 0.0000 (  5604 PWs)   bands (ev):

   -14.8971 -14.8552 -13.8651 -13.8329  -7.0743  -7.0552  -3.1429  -2.8454
     0.9004   1.2136   6.7360   6.8901

          k = 0.1250 0.2165 0.0000 (  5559 PWs)   bands (ev):

   -19.0654 -18.9587  -7.3479  -6.8701  -6.8549  -6.5536  -5.7993  -5.7886
     3.6656   4.0311   4.4948   5.7342

          k = 0.1250 0.3608 0.0000 (  5578 PWs)   bands (ev):

   -17.6205 -17.5243  -9.6562  -9.6161  -7.3155  -7.2915  -5.6486  -4.9241
     4.4430   4.7259   5.6658   6.0447

          k = 0.1250 0.5051 0.0000 (  5571 PWs)   bands (ev):

   -15.5488 -15.4699 -12.6540 -12.5950  -8.0822  -8.0533  -3.4488  -2.9349
     1.4363   1.7881   8.2743   8.4412

          k = 0.2499 0.4329 0.0000 (  5528 PWs)   bands (ev):

   -15.8777 -15.7947 -11.1592 -11.1314  -9.5953  -9.5746  -3.6697  -3.0577
     2.0782   2.3264   8.1238   8.4224

          k = 0.2499 0.5772 0.0000 (  5540 PWs)   bands (ev):

   -13.9516 -13.9136 -13.0697 -13.0529 -10.3841 -10.3468  -1.8012  -1.5158
     0.3252   0.3686   9.9562  10.0255

     the Fermi energy is    -0.4180 ev

     WARNING: integrated charge=    16.00000180, expected=    16.00000000

!    total energy              =     -47.87456363 Ry
     estimated scf accuracy    <          1.9E-12 Ry
     smearing contrib. (-TS)   =       0.00000003 Ry
     internal energy E=F+TS    =     -47.87456366 Ry

     The total energy is F=E-TS. E is the sum of the following terms:
     one-electron contribution =    -524.16094309 Ry
     hartree contribution      =     265.66100312 Ry
     xc contribution           =     -16.65328512 Ry
     ewald contribution        =     227.27866143 Ry

     convergence has been achieved in   9 iterations

     negative rho (up, down):  1.759E-04 0.000E+00

     Forces acting on atoms (cartesian axes, Ry/au):

     atom    1 type  1   force =     0.00000000    0.00000000    0.00056675
     atom    2 type  1   force =     0.00000000    0.00000000    0.00128489
     atom    3 type  1   force =    -0.00000000    0.00000000   -0.00056675
     atom    4 type  1   force =     0.00000000    0.00000000   -0.00128489

     Total force =     0.001986     Total SCF correction =     0.000005


     Computing stress (Cartesian axis) and pressure


     negative rho (up, down):  1.759E-04 0.000E+00
          total   stress  (Ry/bohr**3)                   (kbar)     P=       -1.54
  -0.00000425   0.00000000   0.00000000           -0.62        0.00        0.00
   0.00000000  -0.00000425   0.00000000            0.00       -0.62        0.00
   0.00000000   0.00000000  -0.00002299            0.00        0.00       -3.38

     Energy error            =      1.5E-05 Ry
     Gradient error          =      1.3E-03 Ry/Bohr
     Cell gradient error     =      6.2E-01 kbar

     number of scf cycles    =   6
     number of bfgs steps    =   5

     enthalpy           old  =     -47.8745485880 Ry
     enthalpy           new  =     -47.8745636346 Ry

     CASE: enthalpy          _new < enthalpy          _old

     new trust radius        =       0.0063740297 bohr
     new conv_thr            =            1.5E-11 Ry

     new unit-cell volume =    709.96773 a.u.^3 (   105.20636 Ang^3 )
     density =      0.75829 g/cm^3

CELL_PARAMETERS (alat=  4.65610675)
   1.000268586  -0.000000000   0.000000000
  -0.500134293   0.866258006   0.000000000
   0.000000000   0.000000000   8.117194158

ATOMIC_POSITIONS (crystal)
C             0.0000000000        0.0000000000        0.4129696067
C             0.3333333330        0.6666666660        0.4129164614
C             0.0000000000        0.0000000000        0.5870303933
C             0.6666666660        0.3333333330        0.5870835386



     Writing config-only to output data dir ../tmp/gr.save/
     NEW-OLD atomic charge density approx. for the potential

     Check: negative core charge=   -0.000003

     negative rho (up, down):  1.781E-04 0.000E+00
     extrapolated charge   16.00162, renormalised to   16.00000

     total cpu time spent up to now is       42.6 secs

     Self-consistent Calculation

     iteration #  1     ecut=    60.00 Ry     beta= 0.70
     Davidson diagonalization with overlap
     ethr =  1.00E-06,  avg # of iterations =  5.7

     negative rho (up, down):  1.753E-04 0.000E+00

     total cpu time spent up to now is       43.0 secs

     total energy              =     -47.87457977 Ry
     estimated scf accuracy    <       0.00001753 Ry

     iteration #  2     ecut=    60.00 Ry     beta= 0.70
     Davidson diagonalization with overlap
     ethr =  1.10E-07,  avg # of iterations =  3.0

     negative rho (up, down):  1.749E-04 0.000E+00

     total cpu time spent up to now is       43.3 secs

     WARNING: integrated charge=    16.00000172, expected=    16.00000000

     total energy              =     -47.87458381 Ry
     estimated scf accuracy    <       0.00000057 Ry

     iteration #  3     ecut=    60.00 Ry     beta= 0.70
     Davidson diagonalization with overlap
     ethr =  3.59E-09,  avg # of iterations =  9.4

     negative rho (up, down):  1.748E-04 0.000E+00

     total cpu time spent up to now is       43.8 secs

     WARNING: integrated charge=    16.00000181, expected=    16.00000000

     total energy              =     -47.87458567 Ry
     estimated scf accuracy    <       0.00000031 Ry

     iteration #  4     ecut=    60.00 Ry     beta= 0.70
     Davidson diagonalization with overlap
     ethr =  1.97E-09,  avg # of iterations =  5.3

     negative rho (up, down):  1.748E-04 0.000E+00

     total cpu time spent up to now is       44.2 secs

     WARNING: integrated charge=    16.00000184, expected=    16.00000000

     total energy              =     -47.87458594 Ry
     estimated scf accuracy    <       0.00000259 Ry

     iteration #  5     ecut=    60.00 Ry     beta= 0.70
     Davidson diagonalization with overlap
     ethr =  1.97E-09,  avg # of iterations =  2.4

     negative rho (up, down):  1.748E-04 0.000E+00

     total cpu time spent up to now is       44.4 secs

     WARNING: integrated charge=    16.00000182, expected=    16.00000000

     total energy              =     -47.87458552 Ry
     estimated scf accuracy    <       0.00000102 Ry

     iteration #  6     ecut=    60.00 Ry     beta= 0.70
     Davidson diagonalization with overlap
     ethr =  1.97E-09,  avg # of iterations =  4.0

     negative rho (up, down):  1.748E-04 0.000E+00

     total cpu time spent up to now is       44.7 secs

     WARNING: integrated charge=    16.00000183, expected=    16.00000000

     total energy              =     -47.87458579 Ry
     estimated scf accuracy    <          7.6E-09 Ry

     iteration #  7     ecut=    60.00 Ry     beta= 0.70
     Davidson diagonalization with overlap
     ethr =  4.74E-11,  avg # of iterations =  6.4

     negative rho (up, down):  1.748E-04 0.000E+00

     total cpu time spent up to now is       45.1 secs

     WARNING: integrated charge=    16.00000183, expected=    16.00000000

     total energy              =     -47.87458581 Ry
     estimated scf accuracy    <          2.6E-09 Ry

     iteration #  8     ecut=    60.00 Ry     beta= 0.70
     Davidson diagonalization with overlap
     ethr =  1.64E-11,  avg # of iterations =  2.9

     negative rho (up, down):  1.748E-04 0.000E+00

     total cpu time spent up to now is       45.4 secs

     WARNING: integrated charge=    16.00000183, expected=    16.00000000

     total energy              =     -47.87458581 Ry
     estimated scf accuracy    <          1.2E-09 Ry

     iteration #  9     ecut=    60.00 Ry     beta= 0.70
     Davidson diagonalization with overlap
     ethr =  7.42E-12,  avg # of iterations =  4.4

     negative rho (up, down):  1.748E-04 0.000E+00

     total cpu time spent up to now is       45.7 secs

     End of self-consistent calculation

          k = 0.0000 0.0000 0.0000 (  5565 PWs)   bands (ev):

   -20.1692 -20.0526  -8.6804  -7.8376  -3.7081  -3.7081  -3.7018  -3.7018
     2.1592   2.5171   2.9772   4.2245

          k = 0.0000 0.1443 0.0000 (  5582 PWs)   bands (ev):

   -19.7999 -19.6861  -8.2334  -7.4035  -5.0817  -5.0646  -4.4081  -4.3960
     2.6622   3.0227   3.4849   4.7292

          k = 0.0000 0.2886 0.0000 (  5566 PWs)   bands (ev):

   -18.7015 -18.5959  -8.0771  -8.0407  -6.9195  -6.1340  -5.7106  -5.6937
     4.1671   4.5289   5.0071   6.2038

          k = 0.0000 0.4329 0.0000 (  5594 PWs)   bands (ev):

   -16.9119 -16.8196 -11.3504 -11.2944  -6.7139  -6.6949  -4.8780  -4.2061
     2.9518   3.3772   6.6355   6.9068

          k =-0.0000-0.5772 0.0000 (  5604 PWs)   bands (ev):

   -14.8979 -14.8552 -13.8653 -13.8326  -7.0749  -7.0554  -3.1456  -2.8448
     0.8987   1.2140   6.7324   6.8886

          k = 0.1250 0.2164 0.0000 (  5559 PWs)   bands (ev):

   -19.0661 -18.9577  -7.3517  -6.8710  -6.8555  -6.5497  -5.8000  -5.7891
     3.6671   4.0315   4.5007   5.7371

          k = 0.1250 0.3607 0.0000 (  5578 PWs)   bands (ev):

   -17.6212 -17.5235  -9.6571  -9.6163  -7.3162  -7.2917  -5.6524  -4.9208
     4.4395   4.7256   5.6671   6.0448

          k = 0.1250 0.5050 0.0000 (  5571 PWs)   bands (ev):

   -15.5497 -15.4694 -12.6547 -12.5947  -8.0828  -8.0534  -3.4523  -2.9330
     1.4335   1.7886   8.2706   8.4400

          k = 0.2499 0.4329 0.0000 (  5528 PWs)   bands (ev):

   -15.8785 -15.7942 -11.1600 -11.1317  -9.5956  -9.5745  -3.6734  -3.0553
     2.0752   2.3263   8.1247   8.4216

          k = 0.2499 0.5772 0.0000 (  5540 PWs)   bands (ev):

   -13.9524 -13.9138 -13.0701 -13.0530 -10.3845 -10.3466  -1.8042  -1.5156
     0.3237   0.3684   9.9541  10.0262

     the Fermi energy is    -0.4184 ev

     WARNING: integrated charge=    16.00000183, expected=    16.00000000

!    total energy              =     -47.87458581 Ry
     estimated scf accuracy    <          5.9E-12 Ry
     smearing contrib. (-TS)   =       0.00000003 Ry
     internal energy E=F+TS    =     -47.87458583 Ry

     The total energy is F=E-TS. E is the sum of the following terms:
     one-electron contribution =    -524.79576844 Ry
     hartree contribution      =     265.97799617 Ry
     xc contribution           =     -16.65299074 Ry
     ewald contribution        =     227.59617718 Ry

     convergence has been achieved in   9 iterations

     negative rho (up, down):  1.748E-04 0.000E+00

     Forces acting on atoms (cartesian axes, Ry/au):

     atom    1 type  1   force =    -0.00000000   -0.00000000    0.00042830
     atom    2 type  1   force =    -0.00000000   -0.00000000    0.00140006
     atom    3 type  1   force =     0.00000000    0.00000000   -0.00042830
     atom    4 type  1   force =     0.00000000    0.00000000   -0.00140006

     Total force =     0.002071     Total SCF correction =     0.000010


     Computing stress (Cartesian axis) and pressure


     negative rho (up, down):  1.748E-04 0.000E+00
          total   stress  (Ry/bohr**3)                   (kbar)     P=       -1.67
  -0.00000572   0.00000000  -0.00000000           -0.84        0.00       -0.00
   0.00000000  -0.00000572  -0.00000000            0.00       -0.84       -0.00
   0.00000000   0.00000000  -0.00002254            0.00        0.00       -3.32

     Energy error            =      2.2E-05 Ry
     Gradient error          =      1.4E-03 Ry/Bohr
     Cell gradient error     =      8.4E-01 kbar

     number of scf cycles    =   7
     number of bfgs steps    =   6

     enthalpy           old  =     -47.8745636346 Ry
     enthalpy           new  =     -47.8745858064 Ry

     CASE: enthalpy          _new < enthalpy          _old

     new trust radius        =       0.0095610445 bohr
     new conv_thr            =            2.2E-11 Ry

     new unit-cell volume =    710.05021 a.u.^3 (   105.21858 Ang^3 )
     density =      0.75820 g/cm^3

CELL_PARAMETERS (alat=  4.65610675)
   1.000326682   0.000000000   0.000000000
  -0.500163341   0.866308318   0.000000000
   0.000000000   0.000000000   8.117194158

ATOMIC_POSITIONS (crystal)
C             0.0000000000        0.0000000000        0.4132225810
C             0.3333333330        0.6666666660        0.4131571052
C             0.0000000000        0.0000000000        0.5867774190
C             0.6666666660        0.3333333330        0.5868428948



     Writing config-only to output data dir ../tmp/gr.save/
     NEW-OLD atomic charge density approx. for the potential

     Check: negative core charge=   -0.000003

     negative rho (up, down):  1.786E-04 0.000E+00
     extrapolated charge   16.00186, renormalised to   16.00000

     total cpu time spent up to now is       46.5 secs

     Self-consistent Calculation

     iteration #  1     ecut=    60.00 Ry     beta= 0.70
     Davidson diagonalization with overlap
     ethr =  1.00E-06,  avg # of iterations =  6.9

     negative rho (up, down):  1.740E-04 0.000E+00

     total cpu time spent up to now is       47.0 secs

     total energy              =     -47.87460559 Ry
     estimated scf accuracy    <       0.00004547 Ry

     iteration #  2     ecut=    60.00 Ry     beta= 0.70
     Davidson diagonalization with overlap
     ethr =  2.84E-07,  avg # of iterations =  2.0

     negative rho (up, down):  1.733E-04 0.000E+00

     total cpu time spent up to now is       47.2 secs

     WARNING: integrated charge=    16.00000170, expected=    16.00000000

     total energy              =     -47.87461345 Ry
     estimated scf accuracy    <       0.00000231 Ry

     iteration #  3     ecut=    60.00 Ry     beta= 0.70
     Davidson diagonalization with overlap
     ethr =  1.44E-08,  avg # of iterations =  7.5

     negative rho (up, down):  1.734E-04 0.000E+00

     total cpu time spent up to now is       47.7 secs

     WARNING: integrated charge=    16.00000181, expected=    16.00000000

     total energy              =     -47.87461820 Ry
     estimated scf accuracy    <       0.00000037 Ry

     iteration #  4     ecut=    60.00 Ry     beta= 0.70
     Davidson diagonalization with overlap
     ethr =  2.33E-09,  avg # of iterations =  5.0

     negative rho (up, down):  1.735E-04 0.000E+00

     total cpu time spent up to now is       48.0 secs

     WARNING: integrated charge=    16.00000186, expected=    16.00000000

     total energy              =     -47.87461851 Ry
     estimated scf accuracy    <       0.00000011 Ry

     iteration #  5     ecut=    60.00 Ry     beta= 0.70
     Davidson diagonalization with overlap
     ethr =  7.12E-10,  avg # of iterations =  4.6

     negative rho (up, down):  1.734E-04 0.000E+00

     total cpu time spent up to now is       48.3 secs

     WARNING: integrated charge=    16.00000187, expected=    16.00000000

     total energy              =     -47.87461852 Ry
     estimated scf accuracy    <       0.00000012 Ry

[...]

     total energy              =     -47.87464742 Ry
     estimated scf accuracy    <       0.00071752 Ry

     iteration #  9     ecut=    60.00 Ry     beta= 0.70
     Davidson diagonalization with overlap
     ethr =  4.06E-06,  avg # of iterations =  5.7

     negative rho (up, down):  1.849E-04 0.000E+00

     total cpu time spent up to now is      104.5 secs

     WARNING: integrated charge=    16.00000286, expected=    16.00000000

     total energy              =     -47.87485704 Ry
     estimated scf accuracy    <       0.00001415 Ry

     iteration # 10     ecut=    60.00 Ry     beta= 0.70
     Davidson diagonalization with overlap
     ethr =  8.84E-08,  avg # of iterations =  7.0

     negative rho (up, down):  1.853E-04 0.000E+00

     total cpu time spent up to now is      105.0 secs

     WARNING: integrated charge=    16.00000287, expected=    16.00000000

     total energy              =     -47.87495489 Ry
     estimated scf accuracy    <       0.00000861 Ry

     iteration # 11     ecut=    60.00 Ry     beta= 0.70
     Davidson diagonalization with overlap
     ethr =  5.38E-08,  avg # of iterations =  2.9

     negative rho (up, down):  1.845E-04 0.000E+00

     total cpu time spent up to now is      105.3 secs

     WARNING: integrated charge=    16.00000284, expected=    16.00000000

     total energy              =     -47.87494354 Ry
     estimated scf accuracy    <       0.00002028 Ry

     iteration # 12     ecut=    60.00 Ry     beta= 0.70
     Davidson diagonalization with overlap
     ethr =  5.38E-08,  avg # of iterations =  1.9

     negative rho (up, down):  1.796E-04 0.000E+00

     total cpu time spent up to now is      105.5 secs

     WARNING: integrated charge=    16.00000265, expected=    16.00000000

     total energy              =     -47.87501016 Ry
     estimated scf accuracy    <       0.00000348 Ry

     iteration # 13     ecut=    60.00 Ry     beta= 0.70
     Davidson diagonalization with overlap
     ethr =  2.18E-08,  avg # of iterations = 13.3

     negative rho (up, down):  1.790E-04 0.000E+00

     total cpu time spent up to now is      106.2 secs

     WARNING: integrated charge=    16.00000265, expected=    16.00000000

     total energy              =     -47.87502336 Ry
     estimated scf accuracy    <       0.00026435 Ry

     iteration # 14     ecut=    60.00 Ry     beta= 0.70
     Davidson diagonalization with overlap
     ethr =  2.18E-08,  avg # of iterations =  4.4

     negative rho (up, down):  1.774E-04 0.000E+00

     total cpu time spent up to now is      106.5 secs

     WARNING: integrated charge=    16.00000265, expected=    16.00000000

     total energy              =     -47.87496027 Ry
     estimated scf accuracy    <       0.00018732 Ry

     iteration # 15     ecut=    60.00 Ry     beta= 0.70
     Davidson diagonalization with overlap
     ethr =  2.18E-08,  avg # of iterations =  7.8

     negative rho (up, down):  1.773E-04 0.000E+00

     total cpu time spent up to now is      107.0 secs

     WARNING: integrated charge=    16.00000265, expected=    16.00000000

     total energy              =     -47.87496865 Ry
     estimated scf accuracy    <       0.00005335 Ry

     iteration # 16     ecut=    60.00 Ry     beta= 0.70
     Davidson diagonalization with overlap
     ethr =  2.18E-08,  avg # of iterations =  1.5

     negative rho (up, down):  1.770E-04 0.000E+00

     total cpu time spent up to now is      107.2 secs

     WARNING: integrated charge=    16.00000265, expected=    16.00000000

     total energy              =     -47.87496122 Ry
     estimated scf accuracy    <       0.00005143 Ry

     iteration # 17     ecut=    60.00 Ry     beta= 0.70
     Davidson diagonalization with overlap
     ethr =  2.18E-08,  avg # of iterations =  1.4

     negative rho (up, down):  1.757E-04 0.000E+00

     total cpu time spent up to now is      107.5 secs

     WARNING: integrated charge=    16.00000264, expected=    16.00000000

     total energy              =     -47.87494110 Ry
     estimated scf accuracy    <       0.00003836 Ry

     iteration # 18     ecut=    60.00 Ry     beta= 0.70
     Davidson diagonalization with overlap
     ethr =  2.18E-08,  avg # of iterations =  6.6

     negative rho (up, down):  1.751E-04 0.000E+00

     total cpu time spent up to now is      107.9 secs

     WARNING: integrated charge=    16.00000264, expected=    16.00000000

     total energy              =     -47.87494537 Ry
     estimated scf accuracy    <       0.00000167 Ry

     iteration # 19     ecut=    60.00 Ry     beta= 0.70
     Davidson diagonalization with overlap
     ethr =  1.04E-08,  avg # of iterations =  4.2

     negative rho (up, down):  1.751E-04 0.000E+00

     total cpu time spent up to now is      108.2 secs

     WARNING: integrated charge=    16.00000264, expected=    16.00000000

     total energy              =     -47.87494664 Ry
     estimated scf accuracy    <       0.00000027 Ry

     iteration # 20     ecut=    60.00 Ry     beta= 0.70
     Davidson diagonalization with overlap
     ethr =  1.68E-09,  avg # of iterations =  4.8

     negative rho (up, down):  1.751E-04 0.000E+00

     total cpu time spent up to now is      108.5 secs

     WARNING: integrated charge=    16.00000264, expected=    16.00000000

     total energy              =     -47.87494714 Ry
     estimated scf accuracy    <       0.00000103 Ry

     iteration # 21     ecut=    60.00 Ry     beta= 0.70
     Davidson diagonalization with overlap
     ethr =  1.68E-09,  avg # of iterations =  1.4

     negative rho (up, down):  1.751E-04 0.000E+00

     total cpu time spent up to now is      108.8 secs

     WARNING: integrated charge=    16.00000264, expected=    16.00000000

     total energy              =     -47.87494679 Ry
     estimated scf accuracy    <       0.00000131 Ry

     iteration # 22     ecut=    60.00 Ry     beta= 0.70
     Davidson diagonalization with overlap
     ethr =  1.68E-09,  avg # of iterations =  1.0

     negative rho (up, down):  1.751E-04 0.000E+00

     total cpu time spent up to now is      109.0 secs

     WARNING: integrated charge=    16.00000264, expected=    16.00000000

     total energy              =     -47.87494667 Ry
     estimated scf accuracy    <       0.00000076 Ry

     iteration # 23     ecut=    60.00 Ry     beta= 0.70
     Davidson diagonalization with overlap
     ethr =  1.68E-09,  avg # of iterations =  1.2

     negative rho (up, down):  1.751E-04 0.000E+00

     total cpu time spent up to now is      109.2 secs

     WARNING: integrated charge=    16.00000264, expected=    16.00000000

     total energy              =     -47.87494654 Ry
     estimated scf accuracy    <       0.00000051 Ry

     iteration # 24     ecut=    60.00 Ry     beta= 0.70
     Davidson diagonalization with overlap
     ethr =  1.68E-09,  avg # of iterations =  1.0

     negative rho (up, down):  1.751E-04 0.000E+00

     total cpu time spent up to now is      109.5 secs

     WARNING: integrated charge=    16.00000264, expected=    16.00000000

     total energy              =     -47.87494649 Ry
     estimated scf accuracy    <       0.00000030 Ry

     iteration # 25     ecut=    60.00 Ry     beta= 0.70
     Davidson diagonalization with overlap
     ethr =  1.68E-09,  avg # of iterations =  1.1

     negative rho (up, down):  1.752E-04 0.000E+00

     total cpu time spent up to now is      109.7 secs

     WARNING: integrated charge=    16.00000264, expected=    16.00000000

     total energy              =     -47.87494639 Ry
     estimated scf accuracy    <       0.00000020 Ry

     iteration # 26     ecut=    60.00 Ry     beta= 0.70
     Davidson diagonalization with overlap
     ethr =  1.24E-09,  avg # of iterations =  4.1

     negative rho (up, down):  1.752E-04 0.000E+00

     total cpu time spent up to now is      110.0 secs

     WARNING: integrated charge=    16.00000264, expected=    16.00000000

     total energy              =     -47.87494651 Ry
     estimated scf accuracy    <       0.00000002 Ry

     iteration # 27     ecut=    60.00 Ry     beta= 0.70
     Davidson diagonalization with overlap
     ethr =  9.38E-11,  avg # of iterations =  5.3

     negative rho (up, down):  1.752E-04 0.000E+00

     total cpu time spent up to now is      110.3 secs

     WARNING: integrated charge=    16.00000264, expected=    16.00000000

     total energy              =     -47.87494653 Ry
     estimated scf accuracy    <       0.00000009 Ry

     iteration # 28     ecut=    60.00 Ry     beta= 0.70
     Davidson diagonalization with overlap
     ethr =  9.38E-11,  avg # of iterations =  1.4

     negative rho (up, down):  1.753E-04 0.000E+00

     total cpu time spent up to now is      110.6 secs

     WARNING: integrated charge=    16.00000264, expected=    16.00000000

     total energy              =     -47.87494650 Ry
     estimated scf accuracy    <       0.00000010 Ry

     iteration # 29     ecut=    60.00 Ry     beta= 0.70
     Davidson diagonalization with overlap
     ethr =  9.38E-11,  avg # of iterations =  2.2

     negative rho (up, down):  1.753E-04 0.000E+00

     total cpu time spent up to now is      110.8 secs

     WARNING: integrated charge=    16.00000264, expected=    16.00000000

     total energy              =     -47.87494649 Ry
     estimated scf accuracy    <       0.00000004 Ry

     iteration # 30     ecut=    60.00 Ry     beta= 0.70
     Davidson diagonalization with overlap
     ethr =  9.38E-11,  avg # of iterations =  3.2

     negative rho (up, down):  1.753E-04 0.000E+00

     total cpu time spent up to now is      111.1 secs

     WARNING: integrated charge=    16.00000264, expected=    16.00000000

     total energy              =     -47.87494649 Ry
     estimated scf accuracy    <       0.00000002 Ry

     iteration # 31     ecut=    60.00 Ry     beta= 0.70
     Davidson diagonalization with overlap
     ethr =  9.38E-11,  avg # of iterations =  1.3

     negative rho (up, down):  1.753E-04 0.000E+00

     total cpu time spent up to now is      111.3 secs

     WARNING: integrated charge=    16.00000264, expected=    16.00000000

     total energy              =     -47.87494649 Ry
     estimated scf accuracy    <          8.7E-09 Ry

     iteration # 32     ecut=    60.00 Ry     beta= 0.70
     Davidson diagonalization with overlap
     ethr =  5.43E-11,  avg # of iterations =  2.8

     negative rho (up, down):  1.753E-04 0.000E+00

     total cpu time spent up to now is      111.6 secs

     WARNING: integrated charge=    16.00000264, expected=    16.00000000

     total energy              =     -47.87494649 Ry
     estimated scf accuracy    <          2.5E-09 Ry

     iteration # 33     ecut=    60.00 Ry     beta= 0.70
     Davidson diagonalization with overlap
     ethr =  1.57E-11,  avg # of iterations =  3.0

     negative rho (up, down):  1.753E-04 0.000E+00

     total cpu time spent up to now is      111.9 secs

     WARNING: integrated charge=    16.00000264, expected=    16.00000000

     total energy              =     -47.87494648 Ry
     estimated scf accuracy    <          6.3E-09 Ry

     iteration # 34     ecut=    60.00 Ry     beta= 0.70
     Davidson diagonalization with overlap
     ethr =  1.57E-11,  avg # of iterations =  1.5

     negative rho (up, down):  1.753E-04 0.000E+00

     total cpu time spent up to now is      112.1 secs

     WARNING: integrated charge=    16.00000264, expected=    16.00000000

     total energy              =     -47.87494648 Ry
     estimated scf accuracy    <          4.3E-09 Ry

     iteration # 35     ecut=    60.00 Ry     beta= 0.70
     Davidson diagonalization with overlap
     ethr =  1.57E-11,  avg # of iterations =  1.7

     negative rho (up, down):  1.753E-04 0.000E+00

     total cpu time spent up to now is      112.3 secs

     WARNING: integrated charge=    16.00000264, expected=    16.00000000

     total energy              =     -47.87494648 Ry
     estimated scf accuracy    <          2.0E-09 Ry

     iteration # 36     ecut=    60.00 Ry     beta= 0.70
     Davidson diagonalization with overlap
     ethr =  1.26E-11,  avg # of iterations =  3.9

     negative rho (up, down):  1.753E-04 0.000E+00

     total cpu time spent up to now is      112.6 secs

     WARNING: integrated charge=    16.00000264, expected=    16.00000000

     total energy              =     -47.87494648 Ry
     estimated scf accuracy    <          1.4E-10 Ry

     iteration # 37     ecut=    60.00 Ry     beta= 0.70
     Davidson diagonalization with overlap
     ethr =  9.01E-13,  avg # of iterations =  8.2

     negative rho (up, down):  1.753E-04 0.000E+00

     total cpu time spent up to now is      113.1 secs

     WARNING: integrated charge=    16.00000264, expected=    16.00000000

     total energy              =     -47.87494648 Ry
     estimated scf accuracy    <          3.7E-10 Ry

     iteration # 38     ecut=    60.00 Ry     beta= 0.70
     Davidson diagonalization with overlap
     ethr =  9.01E-13,  avg # of iterations =  1.6

     negative rho (up, down):  1.753E-04 0.000E+00

     total cpu time spent up to now is      113.4 secs

     WARNING: integrated charge=    16.00000264, expected=    16.00000000

     total energy              =     -47.87494649 Ry
     estimated scf accuracy    <          2.7E-10 Ry

     iteration # 39     ecut=    60.00 Ry     beta= 0.70
     Davidson diagonalization with overlap
     ethr =  9.01E-13,  avg # of iterations =  2.0

     negative rho (up, down):  1.753E-04 0.000E+00

     total cpu time spent up to now is      113.6 secs

     WARNING: integrated charge=    16.00000264, expected=    16.00000000

     total energy              =     -47.87494648 Ry
     estimated scf accuracy    <          1.7E-10 Ry

     iteration # 40     ecut=    60.00 Ry     beta= 0.70
     Davidson diagonalization with overlap
     ethr =  9.01E-13,  avg # of iterations =  4.0

     negative rho (up, down):  1.753E-04 0.000E+00

     total cpu time spent up to now is      113.9 secs

     End of self-consistent calculation

          k = 0.0000 0.0000 0.0000 (  5565 PWs)   bands (ev):

   -20.2124 -20.0375  -8.8080  -7.7214  -3.7137  -3.7137  -3.7028  -3.7028
     2.1833   2.5199   3.0014   4.1986

          k =-0.0000 0.1443 0.0000 (  5582 PWs)   bands (ev):

   -19.8422 -19.6713  -8.3598  -7.2888  -5.0914  -5.0632  -4.4164  -4.3958
     2.6874   3.0259   3.5097   4.7035

          k =-0.0000 0.2887 0.0000 (  5566 PWs)   bands (ev):

   -18.7414 -18.5821  -8.0941  -8.0361  -7.0417  -6.0246  -5.7215  -5.6933
     4.1957   4.5325   5.0340   6.1714

          k =-0.0000 0.4330 0.0000 (  5594 PWs)   bands (ev):

   -16.9476 -16.8073 -11.3745 -11.2873  -6.7263  -6.6947  -4.9887  -4.1130
     2.8776   3.4416   6.6715   6.8822

          k = 0.0000-0.5773 0.0000 (  5604 PWs)   bands (ev):

   -14.9198 -14.8541 -13.8839 -13.8343  -7.0878  -7.0553  -3.2185  -2.8169
     0.8708   1.2586   6.6954   6.9241

          k = 0.1250 0.2165 0.0000 (  5563 PWs)   bands (ev):

   -19.1068 -18.9436  -7.4756  -6.8810  -6.8559  -6.4383  -5.8090  -5.7910
     3.6946   4.0354   4.5268   5.7116

          k = 0.1250 0.3608 0.0000 (  5578 PWs)   bands (ev):

   -17.6585 -17.5106  -9.6759  -9.6115  -7.3305  -7.2910  -5.7693  -4.8184
     4.3795   4.7679   5.7001   6.0498

          k = 0.1250 0.5052 0.0000 (  5571 PWs)   bands (ev):

   -15.5814 -15.4587 -12.6807 -12.5877  -8.0991  -8.0518  -3.5472  -2.8657
     1.3772   1.8391   8.2340   8.4830

          k = 0.2500 0.4330 0.0000 (  5528 PWs)   bands (ev):

   -15.9115 -15.7828 -11.1757 -11.1311  -9.6107  -9.5778  -3.7784  -2.9688
     2.0178   2.3601   8.1639   8.4211

          k = 0.2500 0.5773 0.0000 (  5540 PWs)   bands (ev):

   -13.9728 -13.9129 -13.0829 -13.0571 -10.4053 -10.3456  -1.8785  -1.4929
     0.3105   0.3883   9.9318  10.0966

     the Fermi energy is    -0.4110 ev

     WARNING: integrated charge=    16.00000264, expected=    16.00000000

!    total energy              =     -47.87494648 Ry
     estimated scf accuracy    <          8.6E-13 Ry
     smearing contrib. (-TS)   =       0.00000004 Ry
     internal energy E=F+TS    =     -47.87494652 Ry

     The total energy is F=E-TS. E is the sum of the following terms:
     one-electron contribution =    -544.06318700 Ry
     hartree contribution      =     275.61115510 Ry
     xc contribution           =     -16.66072149 Ry
     ewald contribution        =     237.23780687 Ry

     convergence has been achieved in  40 iterations

     negative rho (up, down):  1.753E-04 0.000E+00

     Forces acting on atoms (cartesian axes, Ry/au):

     atom    1 type  1   force =     0.00000000   -0.00000000    0.00000450
     atom    2 type  1   force =    -0.00000000    0.00000000    0.00000238
     atom    3 type  1   force =     0.00000000    0.00000000   -0.00000450
     atom    4 type  1   force =     0.00000000    0.00000000   -0.00000238

     Total force =     0.000007     Total SCF correction =     0.000004
     SCF correction compared to forces is large: reduce conv_thr to get better values


     Computing stress (Cartesian axis) and pressure


     negative rho (up, down):  1.753E-04 0.000E+00
          total   stress  (Ry/bohr**3)                   (kbar)     P=       -0.26
   0.00000005  -0.00000000   0.00000000            0.01       -0.00        0.00
  -0.00000000   0.00000005   0.00000000           -0.00        0.01        0.00
   0.00000000   0.00000000  -0.00000537            0.00        0.00       -0.79


     Writing all to output data dir ../tmp/gr.save/
 
     init_run     :      9.44s CPU      9.60s WALL (       2 calls)
     electrons    :     75.66s CPU     91.21s WALL (      18 calls)
     update_pot   :      3.29s CPU      3.52s WALL (      16 calls)
     forces       :      2.70s CPU      2.90s WALL (      18 calls)
     stress       :      6.51s CPU      6.96s WALL (      18 calls)

     Called by init_run:
     wfcinit      :      0.13s CPU      0.17s WALL (       2 calls)
     potinit      :      8.93s CPU      8.96s WALL (       2 calls)
     hinit0       :      0.24s CPU      0.32s WALL (       2 calls)

     Called by electrons:
     c_bands      :     55.37s CPU     66.21s WALL (     254 calls)
     sum_band     :      7.51s CPU      8.94s WALL (     254 calls)
     v_of_rho     :     21.48s CPU     24.37s WALL (     265 calls)
     newd         :      0.61s CPU      1.22s WALL (     265 calls)
     mix_rho      :      0.28s CPU      0.32s WALL (     254 calls)
     vdW_kernel   :      8.75s CPU      8.76s WALL (       1 calls)

     Called by c_bands:
     init_us_2    :      0.64s CPU      0.76s WALL (    5460 calls)
     init_us_2:cp :      0.63s CPU      0.75s WALL (    5460 calls)
     cegterg      :     53.11s CPU     63.58s WALL (    2561 calls)

     Called by *egterg:
     cdiaghg      :      1.52s CPU      1.83s WALL (   14976 calls)
     h_psi        :     44.94s CPU     53.79s WALL (   15246 calls)
     s_psi        :      0.99s CPU      1.20s WALL (   15246 calls)
     g_psi        :      0.24s CPU      0.28s WALL (   12665 calls)

     Called by h_psi:
     h_psi:calbec :      1.44s CPU      1.76s WALL (   15246 calls)
     vloc_psi     :     42.39s CPU     50.68s WALL (   15246 calls)
     add_vuspsi   :      1.01s CPU      1.23s WALL (   15246 calls)

     General routines
     calbec       :      1.87s CPU      2.26s WALL (   18686 calls)
     fft          :      5.37s CPU      7.31s WALL (   19230 calls)
     ffts         :      0.07s CPU      0.09s WALL (     254 calls)
     fftw         :     45.50s CPU     54.43s WALL (  265292 calls)
 
     Parallel routines
 
     PWSCF        :   1m37.78s CPU   1m54.44s WALL

 
   This run was terminated on:   0:29: 4   2Feb2022            

=------------------------------------------------------------------------------=
   JOB DONE.
=------------------------------------------------------------------------------=
