
     Program PWSCF v.7.0 starts on  2Feb2022 at  0:29: 5 

     This program is part of the open-source Quantum ESPRESSO suite
     for quantum simulation of materials; please cite
         "P. Giannozzi et al., J. Phys.:Condens. Matter 21 395502 (2009);
         "P. Giannozzi et al., J. Phys.:Condens. Matter 29 465901 (2017);
         "P. Giannozzi et al., J. Chem. Phys. 152 154105 (2020);
          URL http://www.quantum-espresso.org", 
     in publications or presentations arising from this work. More details at
     http://www.quantum-espresso.org/quote

     Parallel version (MPI), running on     4 processors

     MPI processes distributed on     1 nodes
     R & G space division:  proc/nbgrp/npool/nimage =       4
     236026 MiB available memory on the printing compute node when the environment starts
 
     Waiting for input...
     Reading input from standard input

     Current dimensions of program PWSCF are:
     Max number of different atomic species (ntypx) = 10
     Max number of k-points (npk) =  40000
     Max angular momentum in pseudopotentials (lmaxx) =  4

     IMPORTANT: XC functional enforced from input :
     Exchange-correlation= VDW-DF-C6
                           (   1   4  26   0   5   0   0)
     Any further DFT definition will be discarded
     Please, verify this is what you really want


     Subspace diagonalization in iterative solution of the eigenvalue problem:
     a serial algorithm will be used

 
     Parallelization info
     --------------------
     sticks:   dense  smooth     PW     G-vecs:    dense   smooth      PW
     Min          90      90     27                11152    11152    1895
     Max          91      91     28                11175    11175    1922
     Sum         361     361    109                44659    44659    7615
 
     Using Slab Decomposition
 


     bravais-lattice index     =            4
     lattice parameter (alat)  =       4.6561  a.u.
     unit-cell volume          =     709.5865 (a.u.)^3
     number of atoms/cell      =            4
     number of atomic types    =            1
     number of electrons       =        16.00
     number of Kohn-Sham states=           12
     kinetic-energy cutoff     =      60.0000  Ry
     charge density cutoff     =     240.0000  Ry
     scf convergence threshold =      1.0E-09
     mixing beta               =       0.7000
     number of iterations used =            8  plain     mixing
     energy convergence thresh.=      1.0E-05
     force convergence thresh. =      1.0E-04
     press convergence thresh. =      5.0E-02
     Exchange-correlation= VDW-DF-C6
                           (   1   4  26   0   5   0   0)
     nstep                     =           50


     celldm(1)=   4.656107  celldm(2)=   0.000000  celldm(3)=   8.117194
     celldm(4)=   0.000000  celldm(5)=   0.000000  celldm(6)=   0.000000

     crystal axes: (cart. coord. in units of alat)
               a(1) = (   1.000000   0.000000   0.000000 )  
               a(2) = (  -0.500000   0.866025   0.000000 )  
               a(3) = (   0.000000   0.000000   8.117194 )  

     reciprocal axes: (cart. coord. in units 2 pi/alat)
               b(1) = (  1.000000  0.577350  0.000000 )  
               b(2) = (  0.000000  1.154701  0.000000 )  
               b(3) = (  0.000000  0.000000  0.123195 )  


     PseudoPot. # 1 for C  read from file:
     ../pseudo/C.pbe-n-rrkjus_psl.0.1.UPF
     MD5 check sum: 96a6a315177d77e6c95bf6fd3870f9e3
     Pseudo is Ultrasoft + core correction, Zval =  4.0
     Generated using &quot;atomic&quot; code by A. Dal Corso  v.6.3MaX
     Using radial grid of 1073 points,  4 beta functions with: 
                l(1) =   0
                l(2) =   0
                l(3) =   1
                l(4) =   1
     Q(r) pseudized with 0 coefficients 


     atomic species   valence    mass     pseudopotential
        C              4.00    12.01070     C ( 1.00)

     12 Sym. Ops., with inversion, found



   Cartesian axes

     site n.     atom                  positions (alat units)
         1           C   tau(   1) = (   0.0000000   0.0000000   3.3483426  )
         2           C   tau(   2) = (   0.0000000   0.5773503   3.3483426  )
         3           C   tau(   3) = (   0.0000000   0.0000000   4.7688516  )
         4           C   tau(   4) = (   0.5000000   0.2886751   4.7688516  )

     number of k points=    10  Marzari-Vanderbilt smearing, width (Ry)=  0.0200
                       cart. coord. in units 2pi/alat
        k(    1) = (   0.0000000   0.0000000   0.0000000), wk =   0.0312500
        k(    2) = (   0.0000000   0.1443376   0.0000000), wk =   0.1875000
        k(    3) = (   0.0000000   0.2886751   0.0000000), wk =   0.1875000
        k(    4) = (   0.0000000   0.4330127   0.0000000), wk =   0.1875000
        k(    5) = (   0.0000000  -0.5773503   0.0000000), wk =   0.0937500
        k(    6) = (   0.1250000   0.2165064   0.0000000), wk =   0.1875000
        k(    7) = (   0.1250000   0.3608439   0.0000000), wk =   0.3750000
        k(    8) = (   0.1250000   0.5051815   0.0000000), wk =   0.3750000
        k(    9) = (   0.2500000   0.4330127   0.0000000), wk =   0.1875000
        k(   10) = (   0.2500000   0.5773503   0.0000000), wk =   0.1875000

     Dense  grid:    44659 G-vectors     FFT dimensions: (  24,  24, 192)

     Estimated max dynamical RAM per process >      19.86 MB

     Estimated total dynamical RAM >      79.43 MB

     Check: negative core charge=   -0.000004

     Initial potential from superposition of free atoms

     starting charge      15.9998, renormalised to      16.0000

     negative rho (up, down):  1.330E-04 0.000E+00


     %%%%%%%%%%%%%%%%%%%%%%%%%%%%%%%%%%%%%%%%%%%%%%%%%%%%%%%%%%%%%%%%%%%%%%%%
     %                                                                      %
     % You are using vdW-DF, which was implemented by the Thonhauser group. %
     % Please cite the following two papers that made this development      %
     % possible and the two reviews that describe the various versions:     %
     %                                                                      %
     %   T. Thonhauser et al., PRL 115, 136402 (2015).                      %
     %   T. Thonhauser et al., PRB 76, 125112 (2007).                       %
     %   K. Berland et al., Rep. Prog. Phys. 78, 066501 (2015).             %
     %   D.C. Langreth et al., J. Phys.: Condens. Matter 21, 084203 (2009). %
     %                                                                      %
     %                                                                      %
     % If you are calculating the stress with vdW-DF, please also cite:     %
     %                                                                      %
     %   R. Sabatini et al., J. Phys.: Condens. Matter 24, 424209 (2012).   %
     %                                                                      %
     %%%%%%%%%%%%%%%%%%%%%%%%%%%%%%%%%%%%%%%%%%%%%%%%%%%%%%%%%%%%%%%%%%%%%%%%


     Starting wfcs are   16 randomized atomic wfcs

     total cpu time spent up to now is        9.3 secs

     Self-consistent Calculation

     iteration #  1     ecut=    60.00 Ry     beta= 0.70
     Davidson diagonalization with overlap
     ethr =  1.00E-02,  avg # of iterations =  3.9

     Threshold (ethr) on eigenvalues was too large:
     Diagonalizing with lowered threshold

     Davidson diagonalization with overlap
     ethr =  7.11E-04,  avg # of iterations =  7.4

     negative rho (up, down):  3.721E-05 0.000E+00

     total cpu time spent up to now is       10.0 secs

     total energy              =     -47.83312072 Ry
     estimated scf accuracy    <       0.36441632 Ry

     iteration #  2     ecut=    60.00 Ry     beta= 0.70
     Davidson diagonalization with overlap
     ethr =  2.28E-03,  avg # of iterations =  1.7

     negative rho (up, down):  1.366E-04 0.000E+00

     total cpu time spent up to now is       10.3 secs

     total energy              =     -47.83499168 Ry
     estimated scf accuracy    <       0.02050719 Ry

     iteration #  3     ecut=    60.00 Ry     beta= 0.70
     Davidson diagonalization with overlap
     c_bands:  2 eigenvalues not converged
     c_bands:  4 eigenvalues not converged
     c_bands:  3 eigenvalues not converged
     c_bands:  3 eigenvalues not converged
     c_bands:  2 eigenvalues not converged
     c_bands:  2 eigenvalues not converged
     ethr =  1.28E-04,  avg # of iterations = 16.8

     negative rho (up, down):  1.397E-04 0.000E+00

     total cpu time spent up to now is       11.1 secs

     total energy              =     -47.90160112 Ry
     estimated scf accuracy    <       0.02799646 Ry

     iteration #  4     ecut=    60.00 Ry     beta= 0.70
     Davidson diagonalization with overlap
     ethr =  1.28E-04,  avg # of iterations =  3.3

     negative rho (up, down):  1.369E-04 0.000E+00

     total cpu time spent up to now is       11.3 secs

     total energy              =     -47.90495182 Ry
     estimated scf accuracy    <       0.03790652 Ry

     iteration #  5     ecut=    60.00 Ry     beta= 0.70
     Davidson diagonalization with overlap
     ethr =  1.28E-04,  avg # of iterations =  1.1

     negative rho (up, down):  1.168E-04 0.000E+00

     total cpu time spent up to now is       11.6 secs

     total energy              =     -47.88732483 Ry
     estimated scf accuracy    <       0.04081489 Ry

     iteration #  6     ecut=    60.00 Ry     beta= 0.70
     Davidson diagonalization with overlap
     ethr =  1.28E-04,  avg # of iterations =  1.8

     negative rho (up, down):  1.197E-04 0.000E+00

     total cpu time spent up to now is       11.8 secs

     total energy              =     -47.88631119 Ry
     estimated scf accuracy    <       0.01383369 Ry

     iteration #  7     ecut=    60.00 Ry     beta= 0.70
     Davidson diagonalization with overlap
     ethr =  8.65E-05,  avg # of iterations =  1.1

     negative rho (up, down):  1.179E-04 0.000E+00

     total cpu time spent up to now is       12.0 secs

     total energy              =     -47.88808401 Ry
     estimated scf accuracy    <       0.01007150 Ry

     iteration #  8     ecut=    60.00 Ry     beta= 0.70
     Davidson diagonalization with overlap
     ethr =  6.29E-05,  avg # of iterations =  1.0

     negative rho (up, down):  1.299E-04 0.000E+00

     total cpu time spent up to now is       12.3 secs

     total energy              =     -47.88119326 Ry
     estimated scf accuracy    <       0.01137590 Ry

     iteration #  9     ecut=    60.00 Ry     beta= 0.70
     Davidson diagonalization with overlap
     ethr =  6.29E-05,  avg # of iterations =  4.3

     negative rho (up, down):  1.410E-04 0.000E+00

     total cpu time spent up to now is       12.6 secs

     total energy              =     -47.88415992 Ry
     estimated scf accuracy    <       0.00121792 Ry

     iteration # 10     ecut=    60.00 Ry     beta= 0.70
     Davidson diagonalization with overlap
     c_bands:  1 eigenvalues not converged
     c_bands:  2 eigenvalues not converged
     c_bands:  1 eigenvalues not converged
     ethr =  7.61E-06,  avg # of iterations = 14.0

     negative rho (up, down):  1.502E-04 0.000E+00

     total cpu time spent up to now is       13.1 secs

     total energy              =     -47.88480781 Ry
     estimated scf accuracy    <       0.00189132 Ry

     iteration # 11     ecut=    60.00 Ry     beta= 0.70
     Davidson diagonalization with overlap
     ethr =  7.61E-06,  avg # of iterations =  3.6

     negative rho (up, down):  1.523E-04 0.000E+00

     total cpu time spent up to now is       13.4 secs

     total energy              =     -47.88494165 Ry
     estimated scf accuracy    <       0.00030072 Ry

     iteration # 12     ecut=    60.00 Ry     beta= 0.70
     Davidson diagonalization with overlap
     c_bands:  2 eigenvalues not converged
     ethr =  1.88E-06,  avg # of iterations = 14.1

     negative rho (up, down):  1.731E-04 0.000E+00

     total cpu time spent up to now is       13.9 secs

     WARNING: integrated charge=    16.00000178, expected=    16.00000000

     total energy              =     -47.88501905 Ry
     estimated scf accuracy    <       0.00090603 Ry

     iteration # 13     ecut=    60.00 Ry     beta= 0.70
     Davidson diagonalization with overlap
     ethr =  1.88E-06,  avg # of iterations =  1.6

     negative rho (up, down):  1.737E-04 0.000E+00

     total cpu time spent up to now is       14.2 secs

     WARNING: integrated charge=    16.00000178, expected=    16.00000000

     total energy              =     -47.88489177 Ry
     estimated scf accuracy    <       0.00026750 Ry

     iteration # 14     ecut=    60.00 Ry     beta= 0.70
     Davidson diagonalization with overlap
     ethr =  1.67E-06,  avg # of iterations =  4.0

     negative rho (up, down):  1.588E-04 0.000E+00

     total cpu time spent up to now is       14.4 secs

     WARNING: integrated charge=    16.00000173, expected=    16.00000000

     total energy              =     -47.88498945 Ry
     estimated scf accuracy    <       0.00002362 Ry

     iteration # 15     ecut=    60.00 Ry     beta= 0.70
     Davidson diagonalization with overlap
     ethr =  1.48E-07,  avg # of iterations =  5.1

     negative rho (up, down):  1.777E-04 0.000E+00

     total cpu time spent up to now is       14.8 secs

     WARNING: integrated charge=    16.00000175, expected=    16.00000000

     total energy              =     -47.88498490 Ry
     estimated scf accuracy    <       0.00013414 Ry

     iteration # 16     ecut=    60.00 Ry     beta= 0.70
     Davidson diagonalization with overlap
     ethr =  1.48E-07,  avg # of iterations =  1.6

     negative rho (up, down):  1.799E-04 0.000E+00

     total cpu time spent up to now is       15.0 secs

     WARNING: integrated charge=    16.00000174, expected=    16.00000000

     total energy              =     -47.88498462 Ry
     estimated scf accuracy    <       0.00000898 Ry

     iteration # 17     ecut=    60.00 Ry     beta= 0.70
     Davidson diagonalization with overlap
     ethr =  5.61E-08,  avg # of iterations =  3.4

     negative rho (up, down):  1.796E-04 0.000E+00

     total cpu time spent up to now is       15.3 secs

     WARNING: integrated charge=    16.00000175, expected=    16.00000000

     total energy              =     -47.88498976 Ry
     estimated scf accuracy    <       0.00000178 Ry

     iteration # 18     ecut=    60.00 Ry     beta= 0.70
     Davidson diagonalization with overlap
     ethr =  1.11E-08,  avg # of iterations =  5.8

     negative rho (up, down):  1.789E-04 0.000E+00

     total cpu time spent up to now is       15.7 secs

     WARNING: integrated charge=    16.00000173, expected=    16.00000000

     total energy              =     -47.88498888 Ry
     estimated scf accuracy    <       0.00000583 Ry

     iteration # 19     ecut=    60.00 Ry     beta= 0.70
     Davidson diagonalization with overlap
     ethr =  1.11E-08,  avg # of iterations =  4.7

     negative rho (up, down):  1.774E-04 0.000E+00

     total cpu time spent up to now is       16.1 secs

     WARNING: integrated charge=    16.00000171, expected=    16.00000000

     total energy              =     -47.88498980 Ry
     estimated scf accuracy    <       0.00000092 Ry

     iteration # 20     ecut=    60.00 Ry     beta= 0.70
     Davidson diagonalization with overlap
     ethr =  5.77E-09,  avg # of iterations =  2.8

     negative rho (up, down):  1.773E-04 0.000E+00

     total cpu time spent up to now is       16.3 secs

     WARNING: integrated charge=    16.00000171, expected=    16.00000000

     total energy              =     -47.88499001 Ry
     estimated scf accuracy    <       0.00000048 Ry

     iteration # 21     ecut=    60.00 Ry     beta= 0.70
     Davidson diagonalization with overlap
     ethr =  2.99E-09,  avg # of iterations =  3.6

     negative rho (up, down):  1.774E-04 0.000E+00

     total cpu time spent up to now is       16.6 secs

     WARNING: integrated charge=    16.00000171, expected=    16.00000000

     total energy              =     -47.88499013 Ry
     estimated scf accuracy    <       0.00000058 Ry

     iteration # 22     ecut=    60.00 Ry     beta= 0.70
     Davidson diagonalization with overlap
     ethr =  2.99E-09,  avg # of iterations =  1.2

     negative rho (up, down):  1.774E-04 0.000E+00

     total cpu time spent up to now is       16.8 secs

     WARNING: integrated charge=    16.00000171, expected=    16.00000000

     total energy              =     -47.88499000 Ry
     estimated scf accuracy    <       0.00000045 Ry

     iteration # 23     ecut=    60.00 Ry     beta= 0.70
     Davidson diagonalization with overlap
     ethr =  2.83E-09,  avg # of iterations =  1.0

     negative rho (up, down):  1.773E-04 0.000E+00

     total cpu time spent up to now is       17.0 secs

     WARNING: integrated charge=    16.00000171, expected=    16.00000000

     total energy              =     -47.88498993 Ry
     estimated scf accuracy    <       0.00000018 Ry

     iteration # 24     ecut=    60.00 Ry     beta= 0.70
     Davidson diagonalization with overlap
     ethr =  1.15E-09,  avg # of iterations =  3.4

     negative rho (up, down):  1.773E-04 0.000E+00

     total cpu time spent up to now is       17.3 secs

     WARNING: integrated charge=    16.00000171, expected=    16.00000000

     total energy              =     -47.88498997 Ry
     estimated scf accuracy    <       0.00000002 Ry

     iteration # 25     ecut=    60.00 Ry     beta= 0.70
     Davidson diagonalization with overlap
     ethr =  1.20E-10,  avg # of iterations =  6.8

     negative rho (up, down):  1.773E-04 0.000E+00

     total cpu time spent up to now is       17.8 secs

     WARNING: integrated charge=    16.00000171, expected=    16.00000000

     total energy              =     -47.88499001 Ry
     estimated scf accuracy    <       0.00000003 Ry

     iteration # 26     ecut=    60.00 Ry     beta= 0.70
     Davidson diagonalization with overlap
     ethr =  1.20E-10,  avg # of iterations =  1.5

     negative rho (up, down):  1.774E-04 0.000E+00

     total cpu time spent up to now is       18.0 secs

     WARNING: integrated charge=    16.00000171, expected=    16.00000000

     total energy              =     -47.88499002 Ry
     estimated scf accuracy    <       0.00000003 Ry

     iteration # 27     ecut=    60.00 Ry     beta= 0.70
     Davidson diagonalization with overlap
     ethr =  1.20E-10,  avg # of iterations =  4.2

     negative rho (up, down):  1.774E-04 0.000E+00

     total cpu time spent up to now is       18.3 secs

     WARNING: integrated charge=    16.00000171, expected=    16.00000000

     total energy              =     -47.88499003 Ry
     estimated scf accuracy    <       0.00000010 Ry

     iteration # 28     ecut=    60.00 Ry     beta= 0.70
     Davidson diagonalization with overlap
     ethr =  1.20E-10,  avg # of iterations =  1.2

     negative rho (up, down):  1.774E-04 0.000E+00

     total cpu time spent up to now is       18.5 secs

     WARNING: integrated charge=    16.00000171, expected=    16.00000000

     total energy              =     -47.88499001 Ry
     estimated scf accuracy    <       0.00000009 Ry

     iteration # 29     ecut=    60.00 Ry     beta= 0.70
     Davidson diagonalization with overlap
     ethr =  1.20E-10,  avg # of iterations =  1.0

     negative rho (up, down):  1.774E-04 0.000E+00

     total cpu time spent up to now is       18.8 secs

     WARNING: integrated charge=    16.00000171, expected=    16.00000000

     total energy              =     -47.88499001 Ry
     estimated scf accuracy    <       0.00000006 Ry

     iteration # 30     ecut=    60.00 Ry     beta= 0.70
     Davidson diagonalization with overlap
     ethr =  1.20E-10,  avg # of iterations =  1.0

     negative rho (up, down):  1.774E-04 0.000E+00

     total cpu time spent up to now is       19.0 secs

     WARNING: integrated charge=    16.00000171, expected=    16.00000000

     total energy              =     -47.88499001 Ry
     estimated scf accuracy    <       0.00000006 Ry

     iteration # 31     ecut=    60.00 Ry     beta= 0.70
     Davidson diagonalization with overlap
     ethr =  1.20E-10,  avg # of iterations =  1.1

     negative rho (up, down):  1.773E-04 0.000E+00

     total cpu time spent up to now is       19.2 secs

     WARNING: integrated charge=    16.00000171, expected=    16.00000000

     total energy              =     -47.88499001 Ry
     estimated scf accuracy    <       0.00000005 Ry

     iteration # 32     ecut=    60.00 Ry     beta= 0.70
     Davidson diagonalization with overlap
     ethr =  1.20E-10,  avg # of iterations =  1.9

     negative rho (up, down):  1.773E-04 0.000E+00

     total cpu time spent up to now is       19.5 secs

     WARNING: integrated charge=    16.00000171, expected=    16.00000000

     total energy              =     -47.88499001 Ry
     estimated scf accuracy    <       0.00000002 Ry

     iteration # 33     ecut=    60.00 Ry     beta= 0.70
     Davidson diagonalization with overlap
     ethr =  1.05E-10,  avg # of iterations =  1.0

     negative rho (up, down):  1.773E-04 0.000E+00

     total cpu time spent up to now is       19.7 secs

     WARNING: integrated charge=    16.00000171, expected=    16.00000000

     total energy              =     -47.88499000 Ry
     estimated scf accuracy    <       0.00000002 Ry

     iteration # 34     ecut=    60.00 Ry     beta= 0.70
     Davidson diagonalization with overlap
     ethr =  1.05E-10,  avg # of iterations =  4.0

     negative rho (up, down):  1.773E-04 0.000E+00

     total cpu time spent up to now is       20.0 secs

     WARNING: integrated charge=    16.00000171, expected=    16.00000000

     total energy              =     -47.88499001 Ry
     estimated scf accuracy    <       0.00000001 Ry

     iteration # 35     ecut=    60.00 Ry     beta= 0.70
     Davidson diagonalization with overlap
     ethr =  6.86E-11,  avg # of iterations =  1.7

     negative rho (up, down):  1.773E-04 0.000E+00

     total cpu time spent up to now is       20.3 secs

     WARNING: integrated charge=    16.00000171, expected=    16.00000000

     total energy              =     -47.88499001 Ry
     estimated scf accuracy    <          4.3E-09 Ry

     iteration # 36     ecut=    60.00 Ry     beta= 0.70
     Davidson diagonalization with overlap
     ethr =  2.67E-11,  avg # of iterations =  2.2

     negative rho (up, down):  1.773E-04 0.000E+00

     total cpu time spent up to now is       20.5 secs

     WARNING: integrated charge=    16.00000171, expected=    16.00000000

     total energy              =     -47.88499001 Ry
     estimated scf accuracy    <          1.3E-09 Ry

     iteration # 37     ecut=    60.00 Ry     beta= 0.70
     Davidson diagonalization with overlap
     ethr =  8.34E-12,  avg # of iterations =  4.2

     negative rho (up, down):  1.773E-04 0.000E+00

     total cpu time spent up to now is       20.8 secs

     End of self-consistent calculation

          k = 0.0000 0.0000 0.0000 (  5565 PWs)   bands (ev):

   -20.1472 -20.0357  -8.6433  -7.8261  -3.6872  -3.6872  -3.6813  -3.6813
     2.0931   2.4323   2.8787   4.1301

          k = 0.0000 0.1443 0.0000 (  5582 PWs)   bands (ev):

   -19.7779 -19.6691  -8.1964  -7.3918  -5.0605  -5.0443  -4.3872  -4.3757
     2.5985   2.9392   3.3857   4.6354

          k = 0.0000 0.2887 0.0000 (  5566 PWs)   bands (ev):

   -18.6796 -18.5786  -8.0554  -8.0208  -6.8830  -6.1218  -5.6899  -5.6739
     4.1110   4.4509   4.9061   6.1193

          k = 0.0000 0.4330 0.0000 (  5594 PWs)   bands (ev):

   -16.8901 -16.8020 -11.3282 -11.2750  -6.6935  -6.6755  -4.8431  -4.1929
     2.9868   3.3985   6.6004   6.9347

          k = 0.0000-0.5774 0.0000 (  5604 PWs)   bands (ev):

   -14.8783 -14.8376 -13.8426 -13.8115  -7.0546  -7.0362  -3.1165  -2.8266
     0.9310   1.2393   6.7761   6.9259

          k = 0.1250 0.2165 0.0000 (  5559 PWs)   bands (ev):

   -19.0441 -18.9406  -7.3150  -6.8502  -6.8355  -6.5378  -5.7787  -5.7684
     3.6082   3.9510   4.4003   5.6430

          k = 0.1250 0.3608 0.0000 (  5578 PWs)   bands (ev):

   -17.5993 -17.5060  -9.6356  -9.5969  -7.2946  -7.2714  -5.6166  -4.9081
     4.4711   4.7471   5.6188   5.9716

          k = 0.1250 0.5052 0.0000 (  5571 PWs)   bands (ev):

   -15.5283 -15.4518 -12.6325 -12.5754  -8.0613  -8.0335  -3.4198  -2.9180
     1.4663   1.8103   8.3122   8.4696

          k = 0.2500 0.4330 0.0000 (  5528 PWs)   bands (ev):

   -15.8569 -15.7765 -11.1399 -11.1130  -9.5725  -9.5525  -3.6393  -3.0414
     2.1050   2.3466   8.0932   8.3730

          k = 0.2500 0.5774 0.0000 (  5540 PWs)   bands (ev):

   -13.9326 -13.8959 -13.0492 -13.0329 -10.3611 -10.3250  -1.7744  -1.4962
     0.3492   0.3905  10.0097  10.0785

     the Fermi energy is    -0.3964 ev

     WARNING: integrated charge=    16.00000171, expected=    16.00000000

!    total energy              =     -47.88499001 Ry
     estimated scf accuracy    <          4.4E-10 Ry
     smearing contrib. (-TS)   =       0.00000003 Ry
     internal energy E=F+TS    =     -47.88499004 Ry

     The total energy is F=E-TS. E is the sum of the following terms:
     one-electron contribution =    -523.23493534 Ry
     hartree contribution      =     265.21334536 Ry
     xc contribution           =     -16.66944281 Ry
     ewald contribution        =     226.80604275 Ry

     convergence has been achieved in  37 iterations

     negative rho (up, down):  1.773E-04 0.000E+00

     Forces acting on atoms (cartesian axes, Ry/au):

     atom    1 type  1   force =     0.00000000    0.00000000    0.00118005
     atom    2 type  1   force =     0.00000000    0.00000000    0.00083434
     atom    3 type  1   force =    -0.00000000   -0.00000000   -0.00118005
     atom    4 type  1   force =     0.00000000   -0.00000000   -0.00083434

     Total force =     0.002044     Total SCF correction =     0.000065


     Computing stress (Cartesian axis) and pressure


     negative rho (up, down):  1.773E-04 0.000E+00
          total   stress  (Ry/bohr**3)                   (kbar)     P=        0.15
   0.00001411   0.00000000   0.00000000            2.08        0.00        0.00
   0.00000000   0.00001411   0.00000000            0.00        2.08        0.00
   0.00000000   0.00000000  -0.00002519            0.00        0.00       -3.70


     BFGS Geometry Optimization
     Energy error            =      0.0E+00 Ry
     Gradient error          =      1.2E-03 Ry/Bohr
     Cell gradient error     =      2.1E+00 kbar

     number of scf cycles    =   1
     number of bfgs steps    =   0

     enthalpy           new  =     -47.8849900109 Ry

     new trust radius        =       0.0018798719 bohr
     new conv_thr            =       0.0000000010 Ry

     new unit-cell volume =    710.08736 a.u.^3 (   105.22409 Ang^3 )
     density =      0.75816 g/cm^3

CELL_PARAMETERS (alat=  4.65610675)
   1.000352854   0.000000000   0.000000000
  -0.500176427   0.866330985   0.000000000
   0.000000000   0.000000000   8.117194158

ATOMIC_POSITIONS (crystal)
C             0.0000000000        0.0000000000        0.4125312228
C             0.3333333330        0.6666666660        0.4125220756
C            -0.0000000000       -0.0000000000        0.5874687772
C             0.6666666660        0.3333333330        0.5874779244



     Writing config-only to output data dir ../tmp/gr.save/
     NEW-OLD atomic charge density approx. for the potential

     Check: negative core charge=   -0.000004

     negative rho (up, down):  1.765E-04 0.000E+00
     extrapolated charge   16.01129, renormalised to   16.00000

     total cpu time spent up to now is       21.6 secs

     Self-consistent Calculation

     iteration #  1     ecut=    60.00 Ry     beta= 0.70
     Davidson diagonalization with overlap
     c_bands:  1 eigenvalues not converged
     c_bands:  2 eigenvalues not converged
     ethr =  1.00E-06,  avg # of iterations = 10.7

     negative rho (up, down):  1.741E-04 0.000E+00

     total cpu time spent up to now is       22.0 secs

     total energy              =     -47.88483981 Ry
     estimated scf accuracy    <       0.00011148 Ry

     iteration #  2     ecut=    60.00 Ry     beta= 0.70
     Davidson diagonalization with overlap
     c_bands:  2 eigenvalues not converged
     c_bands:  1 eigenvalues not converged
     ethr =  6.97E-07,  avg # of iterations = 13.2

     negative rho (up, down):  1.750E-04 0.000E+00

     total cpu time spent up to now is       22.5 secs

     total energy              =     -47.88497001 Ry
     estimated scf accuracy    <       0.00049375 Ry

     iteration #  3     ecut=    60.00 Ry     beta= 0.70
     Davidson diagonalization with overlap
     ethr =  6.97E-07,  avg # of iterations =  4.6

     negative rho (up, down):  1.756E-04 0.000E+00

     total cpu time spent up to now is       22.8 secs

     total energy              =     -47.88498739 Ry
     estimated scf accuracy    <       0.00007196 Ry

     iteration #  4     ecut=    60.00 Ry     beta= 0.70
     Davidson diagonalization with overlap
     ethr =  4.50E-07,  avg # of iterations =  2.2

     negative rho (up, down):  1.761E-04 0.000E+00

     total cpu time spent up to now is       23.0 secs

     WARNING: integrated charge=    16.00000168, expected=    16.00000000

     total energy              =     -47.88499168 Ry
     estimated scf accuracy    <       0.00001186 Ry

     iteration #  5     ecut=    60.00 Ry     beta= 0.70
     Davidson diagonalization with overlap
     ethr =  7.41E-08,  avg # of iterations =  4.5

     negative rho (up, down):  1.763E-04 0.000E+00

     total cpu time spent up to now is       23.3 secs

     WARNING: integrated charge=    16.00000168, expected=    16.00000000

     total energy              =     -47.88499780 Ry
     estimated scf accuracy    <       0.00000008 Ry

     iteration #  6     ecut=    60.00 Ry     beta= 0.70
     Davidson diagonalization with overlap
     ethr =  5.30E-10,  avg # of iterations = 12.5

     negative rho (up, down):  1.763E-04 0.000E+00

     total cpu time spent up to now is       24.0 secs

     WARNING: integrated charge=    16.00000166, expected=    16.00000000

     total energy              =     -47.88499908 Ry
     estimated scf accuracy    <       0.00000013 Ry

     iteration #  7     ecut=    60.00 Ry     beta= 0.70
     Davidson diagonalization with overlap
     ethr =  5.30E-10,  avg # of iterations =  4.0

     negative rho (up, down):  1.771E-04 0.000E+00

     total cpu time spent up to now is       24.3 secs

     WARNING: integrated charge=    16.00000169, expected=    16.00000000

     total energy              =     -47.88500035 Ry
     estimated scf accuracy    <       0.00000052 Ry

     iteration #  8     ecut=    60.00 Ry     beta= 0.70
     Davidson diagonalization with overlap
     ethr =  5.30E-10,  avg # of iterations =  7.7

     negative rho (up, down):  1.774E-04 0.000E+00

     total cpu time spent up to now is       24.8 secs

     WARNING: integrated charge=    16.00000180, expected=    16.00000000

     total energy              =     -47.88499662 Ry
     estimated scf accuracy    <       0.00000884 Ry

     iteration #  9     ecut=    60.00 Ry     beta= 0.70
     Davidson diagonalization with overlap
     ethr =  5.30E-10,  avg # of iterations =  7.3

     negative rho (up, down):  1.772E-04 0.000E+00

     total cpu time spent up to now is       25.2 secs

     WARNING: integrated charge=    16.00000177, expected=    16.00000000

     total energy              =     -47.88499883 Ry
     estimated scf accuracy    <       0.00000039 Ry

     iteration # 10     ecut=    60.00 Ry     beta= 0.70
     Davidson diagonalization with overlap
     ethr =  5.30E-10,  avg # of iterations =  4.0

     negative rho (up, down):  1.771E-04 0.000E+00

     total cpu time spent up to now is       25.5 secs

     WARNING: integrated charge=    16.00000175, expected=    16.00000000

     total energy              =     -47.88499896 Ry
     estimated scf accuracy    <       0.00000009 Ry

     iteration # 11     ecut=    60.00 Ry     beta= 0.70
     Davidson diagonalization with overlap
     ethr =  5.30E-10,  avg # of iterations =  2.0

     negative rho (up, down):  1.770E-04 0.000E+00

     total cpu time spent up to now is       25.8 secs

     WARNING: integrated charge=    16.00000175, expected=    16.00000000

     total energy              =     -47.88499891 Ry
     estimated scf accuracy    <       0.00000016 Ry

     iteration # 12     ecut=    60.00 Ry     beta= 0.70
     Davidson diagonalization with overlap
     ethr =  5.30E-10,  avg # of iterations =  1.2

     negative rho (up, down):  1.770E-04 0.000E+00

     total cpu time spent up to now is       26.0 secs

     WARNING: integrated charge=    16.00000175, expected=    16.00000000

     total energy              =     -47.88499891 Ry
     estimated scf accuracy    <       0.00000004 Ry

     iteration # 13     ecut=    60.00 Ry     beta= 0.70
     Davidson diagonalization with overlap
     ethr =  2.56E-10,  avg # of iterations =  1.8

     negative rho (up, down):  1.770E-04 0.000E+00

     total cpu time spent up to now is       26.2 secs

     WARNING: integrated charge=    16.00000175, expected=    16.00000000

     total energy              =     -47.88499891 Ry
     estimated scf accuracy    <       0.00000001 Ry

     iteration # 14     ecut=    60.00 Ry     beta= 0.70
     Davidson diagonalization with overlap
     ethr =  7.95E-11,  avg # of iterations =  3.8

     negative rho (up, down):  1.770E-04 0.000E+00

     total cpu time spent up to now is       26.5 secs

     WARNING: integrated charge=    16.00000175, expected=    16.00000000

     total energy              =     -47.88499892 Ry
     estimated scf accuracy    <          8.9E-09 Ry

     iteration # 15     ecut=    60.00 Ry     beta= 0.70
     Davidson diagonalization with overlap
     ethr =  5.57E-11,  avg # of iterations =  1.9

     negative rho (up, down):  1.770E-04 0.000E+00

     total cpu time spent up to now is       26.8 secs

     WARNING: integrated charge=    16.00000175, expected=    16.00000000

     total energy              =     -47.88499892 Ry
     estimated scf accuracy    <       0.00000001 Ry

     iteration # 16     ecut=    60.00 Ry     beta= 0.70
     Davidson diagonalization with overlap
     ethr =  5.57E-11,  avg # of iterations =  1.0

     negative rho (up, down):  1.770E-04 0.000E+00

     total cpu time spent up to now is       27.0 secs

     WARNING: integrated charge=    16.00000175, expected=    16.00000000

     total energy              =     -47.88499891 Ry
     estimated scf accuracy    <       0.00000001 Ry

     iteration # 17     ecut=    60.00 Ry     beta= 0.70
     Davidson diagonalization with overlap
     ethr =  5.57E-11,  avg # of iterations =  4.0

     negative rho (up, down):  1.770E-04 0.000E+00

     total cpu time spent up to now is       27.3 secs

     WARNING: integrated charge=    16.00000175, expected=    16.00000000

     total energy              =     -47.88499892 Ry
     estimated scf accuracy    <          3.1E-09 Ry

     iteration # 18     ecut=    60.00 Ry     beta= 0.70
     Davidson diagonalization with overlap
     ethr =  1.91E-11,  avg # of iterations =  1.6

     negative rho (up, down):  1.770E-04 0.000E+00

     total cpu time spent up to now is       27.5 secs

     End of self-consistent calculation

          k = 0.0000 0.0000 0.0000 (  5565 PWs)   bands (ev):

   -20.1437 -20.0318  -8.6417  -7.8230  -3.6924  -3.6924  -3.6865  -3.6865
     2.0927   2.4323   2.8762   4.1273

          k =-0.0000 0.1443 0.0000 (  5582 PWs)   bands (ev):

   -19.7746 -19.6655  -8.1952  -7.3891  -5.0651  -5.0488  -4.3916  -4.3801
     2.5977   2.9389   3.3828   4.6318

          k =-0.0000 0.2886 0.0000 (  5566 PWs)   bands (ev):

   -18.6770 -18.5757  -8.0585  -8.0238  -6.8829  -6.1203  -5.6930  -5.6770
     4.1091   4.4494   4.9021   6.1140

          k =-0.0000 0.4329 0.0000 (  5594 PWs)   bands (ev):

   -16.8887 -16.8003 -11.3293 -11.2759  -6.6957  -6.6776  -4.8448  -4.1933
     2.9788   3.3910   6.5964   6.9123

          k = 0.0000-0.5771 0.0000 (  5604 PWs)   bands (ev):

   -14.8795 -14.8387 -13.8407 -13.8095  -7.0565  -7.0379  -3.1198  -2.8290
     0.9258   1.2340   6.7606   6.9108

          k = 0.1250 0.2164 0.0000 (  5559 PWs)   bands (ev):

   -19.0413 -18.9374  -7.3145  -6.8542  -6.8394  -6.5358  -5.7817  -5.7713
     3.6067   3.9499   4.3967   5.6391

          k = 0.1250 0.3607 0.0000 (  5578 PWs)   bands (ev):

   -17.5974 -17.5038  -9.6381  -9.5991  -7.2964  -7.2731  -5.6176  -4.9077
     4.4612   4.7376   5.6160   5.9688

          k = 0.1250 0.5050 0.0000 (  5571 PWs)   bands (ev):

   -15.5280 -15.4512 -12.6327 -12.5754  -8.0627  -8.0347  -3.4228  -2.9199
     1.4598   1.8042   8.2966   8.4551

          k = 0.2499 0.4329 0.0000 (  5528 PWs)   bands (ev):

   -15.8562 -15.7755 -11.1423 -11.1153  -9.5719  -9.5519  -3.6420  -3.0429
     2.0972   2.3394   8.0885   8.3682

          k = 0.2499 0.5771 0.0000 (  5540 PWs)   bands (ev):

   -13.9341 -13.8973 -13.0492 -13.0329 -10.3602 -10.3241  -1.7788  -1.4999
     0.3435   0.3853  10.0026  10.0716

     the Fermi energy is    -0.4011 ev

     WARNING: integrated charge=    16.00000175, expected=    16.00000000

!    total energy              =     -47.88499892 Ry
     estimated scf accuracy    <          5.5E-10 Ry
     smearing contrib. (-TS)   =       0.00000003 Ry
     internal energy E=F+TS    =     -47.88499894 Ry

     The total energy is F=E-TS. E is the sum of the following terms:
     one-electron contribution =    -522.97271273 Ry
     hartree contribution      =     265.07982313 Ry
     xc contribution           =     -16.66633036 Ry
     ewald contribution        =     226.67422102 Ry

     convergence has been achieved in  18 iterations

     negative rho (up, down):  1.770E-04 0.000E+00

     Forces acting on atoms (cartesian axes, Ry/au):

     atom    1 type  1   force =    -0.00000000   -0.00000000    0.00105204
     atom    2 type  1   force =    -0.00000000    0.00000000    0.00094047
     atom    3 type  1   force =     0.00000000   -0.00000000   -0.00105204
     atom    4 type  1   force =    -0.00000000    0.00000000   -0.00094047

     Total force =     0.001996     Total SCF correction =     0.000098


     Computing stress (Cartesian axis) and pressure


     negative rho (up, down):  1.770E-04 0.000E+00
          total   stress  (Ry/bohr**3)                   (kbar)     P=       -0.81
   0.00000418  -0.00000000   0.00000000            0.62       -0.00        0.00
  -0.00000000   0.00000418   0.00000000           -0.00        0.62        0.00
   0.00000000   0.00000000  -0.00002490            0.00        0.00       -3.66

     Energy error            =      8.9E-06 Ry
     Gradient error          =      1.1E-03 Ry/Bohr
     Cell gradient error     =      6.2E-01 kbar

     number of scf cycles    =   2
     number of bfgs steps    =   1

     enthalpy           old  =     -47.8849900109 Ry
     enthalpy           new  =     -47.8849989152 Ry

     CASE: enthalpy          _new < enthalpy          _old

     new trust radius        =       0.0020678591 bohr
     new conv_thr            =            1.0E-11 Ry

     new unit-cell volume =    710.50515 a.u.^3 (   105.28600 Ang^3 )
     density =      0.75772 g/cm^3

CELL_PARAMETERS (alat=  4.65610675)
   1.000647095  -0.000000000   0.000000000
  -0.500323548   0.866585805   0.000000000
   0.000000000   0.000000000   8.117194158

ATOMIC_POSITIONS (crystal)
C            -0.0000000000        0.0000000000        0.4125859360
C             0.3333333330        0.6666666660        0.4125687900
C            -0.0000000000       -0.0000000000        0.5874140640
C             0.6666666660        0.3333333330        0.5874312100



     Writing config-only to output data dir ../tmp/gr.save/
     NEW-OLD atomic charge density approx. for the potential

     Check: negative core charge=   -0.000003

     negative rho (up, down):  1.767E-04 0.000E+00
     extrapolated charge   16.00941, renormalised to   16.00000

     total cpu time spent up to now is       28.3 secs

     Self-consistent Calculation

     iteration #  1     ecut=    60.00 Ry     beta= 0.70
     Davidson diagonalization with overlap
     c_bands:  1 eigenvalues not converged
     c_bands:  1 eigenvalues not converged
     ethr =  1.00E-06,  avg # of iterations = 10.7

     negative rho (up, down):  1.746E-04 0.000E+00

     total cpu time spent up to now is       28.7 secs

     total energy              =     -47.88484655 Ry
     estimated scf accuracy    <       0.00010218 Ry

     iteration #  2     ecut=    60.00 Ry     beta= 0.70
     Davidson diagonalization with overlap
     c_bands:  1 eigenvalues not converged
     c_bands:  1 eigenvalues not converged
     ethr =  6.39E-07,  avg # of iterations = 12.9

     negative rho (up, down):  1.753E-04 0.000E+00

     total cpu time spent up to now is       29.2 secs

     total energy              =     -47.88497874 Ry
     estimated scf accuracy    <       0.00049810 Ry

     iteration #  3     ecut=    60.00 Ry     beta= 0.70
     Davidson diagonalization with overlap
     ethr =  6.39E-07,  avg # of iterations =  3.1

     negative rho (up, down):  1.755E-04 0.000E+00

     total cpu time spent up to now is       29.5 secs

     total energy              =     -47.88499258 Ry
     estimated scf accuracy    <       0.00007931 Ry

     iteration #  4     ecut=    60.00 Ry     beta= 0.70
     Davidson diagonalization with overlap
     ethr =  4.96E-07,  avg # of iterations =  2.3

     negative rho (up, down):  1.759E-04 0.000E+00

     total cpu time spent up to now is       29.7 secs

     WARNING: integrated charge=    16.00000174, expected=    16.00000000

     total energy              =     -47.88499614 Ry
     estimated scf accuracy    <       0.00001429 Ry

     iteration #  5     ecut=    60.00 Ry     beta= 0.70
     Davidson diagonalization with overlap
     ethr =  8.93E-08,  avg # of iterations =  4.2

     negative rho (up, down):  1.761E-04 0.000E+00

     total cpu time spent up to now is       30.0 secs

     WARNING: integrated charge=    16.00000173, expected=    16.00000000

     total energy              =     -47.88500539 Ry
     estimated scf accuracy    <       0.00000114 Ry

     iteration #  6     ecut=    60.00 Ry     beta= 0.70
     Davidson diagonalization with overlap
     ethr =  7.14E-09,  avg # of iterations =  5.1

     negative rho (up, down):  1.762E-04 0.000E+00

     total cpu time spent up to now is       30.4 secs

     WARNING: integrated charge=    16.00000173, expected=    16.00000000

     total energy              =     -47.88500677 Ry
     estimated scf accuracy    <       0.00000006 Ry

     iteration #  7     ecut=    60.00 Ry     beta= 0.70
     Davidson diagonalization with overlap
     ethr =  3.54E-10,  avg # of iterations =  6.2

     negative rho (up, down):  1.763E-04 0.000E+00

     total cpu time spent up to now is       30.8 secs

     WARNING: integrated charge=    16.00000176, expected=    16.00000000

     total energy              =     -47.88500683 Ry
     estimated scf accuracy    <       0.00000022 Ry

     iteration #  8     ecut=    60.00 Ry     beta= 0.70
     Davidson diagonalization with overlap
     ethr =  3.54E-10,  avg # of iterations =  1.8

     negative rho (up, down):  1.765E-04 0.000E+00

     total cpu time spent up to now is       31.0 secs

     WARNING: integrated charge=    16.00000180, expected=    16.00000000

     total energy              =     -47.88500676 Ry
     estimated scf accuracy    <       0.00000008 Ry

     iteration #  9     ecut=    60.00 Ry     beta= 0.70
     Davidson diagonalization with overlap
     ethr =  3.54E-10,  avg # of iterations =  4.1

     negative rho (up, down):  1.765E-04 0.000E+00

     total cpu time spent up to now is       31.3 secs

     WARNING: integrated charge=    16.00000180, expected=    16.00000000

     total energy              =     -47.88500681 Ry
     estimated scf accuracy    <       0.00000003 Ry

     iteration # 10     ecut=    60.00 Ry     beta= 0.70
     Davidson diagonalization with overlap
     ethr =  1.70E-10,  avg # of iterations =  1.7

     negative rho (up, down):  1.765E-04 0.000E+00

     total cpu time spent up to now is       31.5 secs

     WARNING: integrated charge=    16.00000179, expected=    16.00000000

     total energy              =     -47.88500681 Ry
     estimated scf accuracy    <       0.00000003 Ry

     iteration # 11     ecut=    60.00 Ry     beta= 0.70
     Davidson diagonalization with overlap
     ethr =  1.70E-10,  avg # of iterations =  1.0

     negative rho (up, down):  1.765E-04 0.000E+00

     total cpu time spent up to now is       31.8 secs

     WARNING: integrated charge=    16.00000179, expected=    16.00000000

     total energy              =     -47.88500680 Ry
     estimated scf accuracy    <       0.00000001 Ry

     iteration # 12     ecut=    60.00 Ry     beta= 0.70
     Davidson diagonalization with overlap
     ethr =  7.46E-11,  avg # of iterations =  2.5

     negative rho (up, down):  1.767E-04 0.000E+00

     total cpu time spent up to now is       32.0 secs

     WARNING: integrated charge=    16.00000179, expected=    16.00000000

     total energy              =     -47.88500679 Ry
     estimated scf accuracy    <          3.1E-09 Ry

     iteration # 13     ecut=    60.00 Ry     beta= 0.70
     Davidson diagonalization with overlap
     ethr =  1.96E-11,  avg # of iterations =  5.6

     negative rho (up, down):  1.766E-04 0.000E+00

     total cpu time spent up to now is       32.4 secs

     WARNING: integrated charge=    16.00000179, expected=    16.00000000

     total energy              =     -47.88500681 Ry
     estimated scf accuracy    <       0.00000006 Ry

     iteration # 14     ecut=    60.00 Ry     beta= 0.70
     Davidson diagonalization with overlap
     ethr =  1.96E-11,  avg # of iterations =  4.0

     negative rho (up, down):  1.766E-04 0.000E+00

     total cpu time spent up to now is       32.7 secs

     WARNING: integrated charge=    16.00000179, expected=    16.00000000

     total energy              =     -47.88500680 Ry
     estimated scf accuracy    <       0.00000001 Ry

     iteration # 15     ecut=    60.00 Ry     beta= 0.70
     Davidson diagonalization with overlap
     ethr =  1.96E-11,  avg # of iterations =  3.6

     negative rho (up, down):  1.766E-04 0.000E+00

     total cpu time spent up to now is       33.0 secs

     WARNING: integrated charge=    16.00000179, expected=    16.00000000

     total energy              =     -47.88500681 Ry
     estimated scf accuracy    <          5.6E-11 Ry

     iteration # 16     ecut=    60.00 Ry     beta= 0.70
     Davidson diagonalization with overlap
     ethr =  3.48E-13,  avg # of iterations = 11.9

     negative rho (up, down):  1.766E-04 0.000E+00

     total cpu time spent up to now is       33.7 secs

     WARNING: integrated charge=    16.00000179, expected=    16.00000000

     total energy              =     -47.88500681 Ry
     estimated scf accuracy    <          2.3E-10 Ry

     iteration # 17     ecut=    60.00 Ry     beta= 0.70
     Davidson diagonalization with overlap
     ethr =  3.48E-13,  avg # of iterations =  4.0

     negative rho (up, down):  1.766E-04 0.000E+00

     total cpu time spent up to now is       34.0 secs

     WARNING: integrated charge=    16.00000179, expected=    16.00000000

     total energy              =     -47.88500681 Ry
     estimated scf accuracy    <          1.7E-11 Ry

     iteration # 18     ecut=    60.00 Ry     beta= 0.70
     Davidson diagonalization with overlap
     ethr =  1.06E-13,  avg # of iterations =  2.4

     negative rho (up, down):  1.766E-04 0.000E+00

     total cpu time spent up to now is       34.2 secs

     End of self-consistent calculation

          k = 0.0000 0.0000 0.0000 (  5565 PWs)   bands (ev):

   -20.1409 -20.0284  -8.6411  -7.8197  -3.6966  -3.6966  -3.6906  -3.6906
     2.0957   2.4354   2.8808   4.1326

          k = 0.0000 0.1442 0.0000 (  5582 PWs)   bands (ev):

   -19.7720 -19.6623  -8.1949  -7.3861  -5.0689  -5.0525  -4.3952  -4.3836
     2.6003   2.9416   3.3873   4.6368

          k = 0.0000 0.2885 0.0000 (  5566 PWs)   bands (ev):

   -18.6749 -18.5731  -8.0610  -8.0261  -6.8834  -6.1183  -5.6956  -5.6794
     4.1106   4.4510   4.9059   6.1175

          k = 0.0000 0.4327 0.0000 (  5594 PWs)   bands (ev):

   -16.8876 -16.7988 -11.3303 -11.2765  -6.6974  -6.6793  -4.8468  -4.1931
     2.9717   3.3851   6.5954   6.9019

          k =-0.0000-0.5770 0.0000 (  5604 PWs)   bands (ev):

   -14.8805 -14.8395 -13.8391 -13.8077  -7.0580  -7.0393  -3.1228  -2.8308
     0.9214   1.2299   6.7476   6.8984

          k = 0.1249 0.2164 0.0000 (  5559 PWs)   bands (ev):

   -19.0390 -18.9346  -7.3147  -6.8574  -6.8426  -6.5335  -5.7841  -5.7736
     3.6086   3.9519   4.4007   5.6435

          k = 0.1249 0.3606 0.0000 (  5578 PWs)   bands (ev):

   -17.5959 -17.5018  -9.6401  -9.6009  -7.2979  -7.2744  -5.6190  -4.9068
     4.4526   4.7300   5.6163   5.9693

          k = 0.1249 0.5049 0.0000 (  5571 PWs)   bands (ev):

   -15.5278 -15.4506 -12.6329 -12.5753  -8.0637  -8.0356  -3.4257  -2.9211
     1.4542   1.7994   8.2835   8.4439

          k = 0.2498 0.4327 0.0000 (  5528 PWs)   bands (ev):

   -15.8557 -15.7745 -11.1443 -11.1171  -9.5714  -9.5513  -3.6448  -3.0437
     2.0904   2.3337   8.0869   8.3663

          k = 0.2498 0.5770 0.0000 (  5540 PWs)   bands (ev):

   -13.9354 -13.8983 -13.0491 -13.0328 -10.3595 -10.3231  -1.7828  -1.5028
     0.3387   0.3811   9.9966  10.0663

     the Fermi energy is    -0.4048 ev

     WARNING: integrated charge=    16.00000179, expected=    16.00000000

!    total energy              =     -47.88500681 Ry
     estimated scf accuracy    <          8.4E-12 Ry
     smearing contrib. (-TS)   =       0.00000003 Ry
     internal energy E=F+TS    =     -47.88500683 Ry

     The total energy is F=E-TS. E is the sum of the following terms:
     one-electron contribution =    -522.87421829 Ry
     hartree contribution      =     265.02865570 Ry
     xc contribution           =     -16.66375418 Ry
     ewald contribution        =     226.62430993 Ry

     convergence has been achieved in  18 iterations

     negative rho (up, down):  1.766E-04 0.000E+00

     Forces acting on atoms (cartesian axes, Ry/au):

     atom    1 type  1   force =     0.00000000    0.00000000    0.00094887
     atom    2 type  1   force =     0.00000000    0.00000000    0.00104087
     atom    3 type  1   force =     0.00000000    0.00000000   -0.00094887
     atom    4 type  1   force =    -0.00000000   -0.00000000   -0.00104087

     Total force =     0.001992     Total SCF correction =     0.000012


     Computing stress (Cartesian axis) and pressure


     negative rho (up, down):  1.766E-04 0.000E+00
          total   stress  (Ry/bohr**3)                   (kbar)     P=       -1.61
  -0.00000408  -0.00000000   0.00000000           -0.60       -0.00        0.00
  -0.00000000  -0.00000408   0.00000000           -0.00       -0.60        0.00
  -0.00000000  -0.00000000  -0.00002472           -0.00       -0.00       -3.64

     Energy error            =      7.9E-06 Ry
     Gradient error          =      1.0E-03 Ry/Bohr
     Cell gradient error     =      6.0E-01 kbar

     number of scf cycles    =   3
     number of bfgs steps    =   2

     enthalpy           old  =     -47.8849989152 Ry
     enthalpy           new  =     -47.8850068072 Ry

     CASE: enthalpy          _new < enthalpy          _old

     new trust radius        =       0.0031017886 bohr
     new conv_thr            =            1.0E-11 Ry

     new unit-cell volume =    710.84601 a.u.^3 (   105.33651 Ang^3 )
     density =      0.75735 g/cm^3

CELL_PARAMETERS (alat=  4.65610675)
   1.000887093  -0.000000000   0.000000000
  -0.500443547   0.866793649   0.000000000
   0.000000000   0.000000000   8.117194158

ATOMIC_POSITIONS (crystal)
C            -0.0000000000        0.0000000000        0.4126680058
C             0.3333333330        0.6666666660        0.4126441498
C            -0.0000000000       -0.0000000000        0.5873319942
C             0.6666666660        0.3333333330        0.5873558502



     Writing config-only to output data dir ../tmp/gr.save/
     NEW-OLD atomic charge density approx. for the potential

     Check: negative core charge=   -0.000003

     negative rho (up, down):  1.768E-04 0.000E+00
     extrapolated charge   16.00767, renormalised to   16.00000

     total cpu time spent up to now is       35.0 secs

     Self-consistent Calculation

     iteration #  1     ecut=    60.00 Ry     beta= 0.70
     Davidson diagonalization with overlap
     c_bands:  1 eigenvalues not converged
     ethr =  1.00E-06,  avg # of iterations =  8.1

     negative rho (up, down):  1.748E-04 0.000E+00

     total cpu time spent up to now is       35.4 secs

     total energy              =     -47.88491220 Ry
     estimated scf accuracy    <       0.00005695 Ry

     iteration #  2     ecut=    60.00 Ry     beta= 0.70
     Davidson diagonalization with overlap
     c_bands:  1 eigenvalues not converged
     ethr =  3.56E-07,  avg # of iterations = 10.0

     negative rho (up, down):  1.753E-04 0.000E+00

     total cpu time spent up to now is       35.9 secs

     total energy              =     -47.88500471 Ry
     estimated scf accuracy    <       0.00028229 Ry

     iteration #  3     ecut=    60.00 Ry     beta= 0.70
     Davidson diagonalization with overlap
     ethr =  3.56E-07,  avg # of iterations =  2.9

     negative rho (up, down):  1.752E-04 0.000E+00

     total cpu time spent up to now is       36.1 secs

     WARNING: integrated charge=    16.00000163, expected=    16.00000000

     total energy              =     -47.88500187 Ry
     estimated scf accuracy    <       0.00005539 Ry

     iteration #  4     ecut=    60.00 Ry     beta= 0.70
     Davidson diagonalization with overlap
     ethr =  3.46E-07,  avg # of iterations =  2.2

     negative rho (up, down):  1.751E-04 0.000E+00

     total cpu time spent up to now is       36.4 secs

     WARNING: integrated charge=    16.00000178, expected=    16.00000000

     total energy              =     -47.88501004 Ry
     estimated scf accuracy    <       0.00000366 Ry

     iteration #  5     ecut=    60.00 Ry     beta= 0.70
     Davidson diagonalization with overlap
     ethr =  2.29E-08,  avg # of iterations =  5.9

     negative rho (up, down):  1.752E-04 0.000E+00

     total cpu time spent up to now is       36.8 secs

     WARNING: integrated charge=    16.00000178, expected=    16.00000000

     total energy              =     -47.88501623 Ry
     estimated scf accuracy    <       0.00000220 Ry

     iteration #  6     ecut=    60.00 Ry     beta= 0.70
     Davidson diagonalization with overlap
     ethr =  1.38E-08,  avg # of iterations =  2.0

     negative rho (up, down):  1.763E-04 0.000E+00

     total cpu time spent up to now is       37.0 secs

     WARNING: integrated charge=    16.00000182, expected=    16.00000000

     total energy              =     -47.88501535 Ry
     estimated scf accuracy    <       0.00000121 Ry

     iteration #  7     ecut=    60.00 Ry     beta= 0.70
     Davidson diagonalization with overlap
     ethr =  7.59E-09,  avg # of iterations =  4.0

     negative rho (up, down):  1.760E-04 0.000E+00

     total cpu time spent up to now is       37.3 secs

     WARNING: integrated charge=    16.00000183, expected=    16.00000000

     total energy              =     -47.88501588 Ry
     estimated scf accuracy    <       0.00000137 Ry

     iteration #  8     ecut=    60.00 Ry     beta= 0.70
     Davidson diagonalization with overlap
     ethr =  7.59E-09,  avg # of iterations =  1.9

     negative rho (up, down):  1.759E-04 0.000E+00

     total cpu time spent up to now is       37.6 secs

     WARNING: integrated charge=    16.00000183, expected=    16.00000000

     total energy              =     -47.88501613 Ry
     estimated scf accuracy    <       0.00000004 Ry

     iteration #  9     ecut=    60.00 Ry     beta= 0.70
     Davidson diagonalization with overlap
     ethr =  2.43E-10,  avg # of iterations =  6.2

     negative rho (up, down):  1.759E-04 0.000E+00

     total cpu time spent up to now is       38.0 secs

     WARNING: integrated charge=    16.00000183, expected=    16.00000000

     total energy              =     -47.88501622 Ry
     estimated scf accuracy    <          1.0E-09 Ry

     iteration # 10     ecut=    60.00 Ry     beta= 0.70
     Davidson diagonalization with overlap
     ethr =  6.48E-12,  avg # of iterations =  6.8

     negative rho (up, down):  1.759E-04 0.000E+00

     total cpu time spent up to now is       38.5 secs

     WARNING: integrated charge=    16.00000183, expected=    16.00000000

     total energy              =     -47.88501621 Ry
     estimated scf accuracy    <          1.1E-09 Ry

     iteration # 11     ecut=    60.00 Ry     beta= 0.70
     Davidson diagonalization with overlap
     ethr =  6.48E-12,  avg # of iterations =  1.4

     negative rho (up, down):  1.759E-04 0.000E+00

     total cpu time spent up to now is       38.7 secs

     WARNING: integrated charge=    16.00000183, expected=    16.00000000

     total energy              =     -47.88501621 Ry
     estimated scf accuracy    <          3.0E-10 Ry

     iteration # 12     ecut=    60.00 Ry     beta= 0.70
     Davidson diagonalization with overlap
     ethr =  1.89E-12,  avg # of iterations =  4.7

     negative rho (up, down):  1.759E-04 0.000E+00

     total cpu time spent up to now is       39.0 secs

     WARNING: integrated charge=    16.00000183, expected=    16.00000000

     total energy              =     -47.88501621 Ry
     estimated scf accuracy    <          6.4E-10 Ry

     iteration # 13     ecut=    60.00 Ry     beta= 0.70
     Davidson diagonalization with overlap
     ethr =  1.89E-12,  avg # of iterations =  3.9

     negative rho (up, down):  1.759E-04 0.000E+00

     total cpu time spent up to now is       39.3 secs

     WARNING: integrated charge=    16.00000183, expected=    16.00000000

     total energy              =     -47.88501621 Ry
     estimated scf accuracy    <          2.7E-09 Ry

     iteration # 14     ecut=    60.00 Ry     beta= 0.70
     Davidson diagonalization with overlap
     ethr =  1.89E-12,  avg # of iterations =  2.6

     negative rho (up, down):  1.759E-04 0.000E+00

     total cpu time spent up to now is       39.6 secs

     WARNING: integrated charge=    16.00000183, expected=    16.00000000

     total energy              =     -47.88501621 Ry
     estimated scf accuracy    <          1.1E-09 Ry

     iteration # 15     ecut=    60.00 Ry     beta= 0.70
     Davidson diagonalization with overlap
     ethr =  1.89E-12,  avg # of iterations =  3.6

     negative rho (up, down):  1.759E-04 0.000E+00

     total cpu time spent up to now is       39.9 secs

     WARNING: integrated charge=    16.00000183, expected=    16.00000000

     total energy              =     -47.88501621 Ry
     estimated scf accuracy    <          1.2E-10 Ry

     iteration # 16     ecut=    60.00 Ry     beta= 0.70
     Davidson diagonalization with overlap
     ethr =  7.67E-13,  avg # of iterations =  3.8

     negative rho (up, down):  1.759E-04 0.000E+00

     total cpu time spent up to now is       40.1 secs

     WARNING: integrated charge=    16.00000183, expected=    16.00000000

     total energy              =     -47.88501621 Ry
     estimated scf accuracy    <          1.9E-11 Ry

     iteration # 17     ecut=    60.00 Ry     beta= 0.70
     Davidson diagonalization with overlap
     ethr =  1.19E-13,  avg # of iterations =  3.3

     negative rho (up, down):  1.759E-04 0.000E+00

     total cpu time spent up to now is       40.4 secs

     WARNING: integrated charge=    16.00000183, expected=    16.00000000

     total energy              =     -47.88501621 Ry
     estimated scf accuracy    <          2.1E-11 Ry

     iteration # 18     ecut=    60.00 Ry     beta= 0.70
     Davidson diagonalization with overlap
     ethr =  1.19E-13,  avg # of iterations =  1.5

     negative rho (up, down):  1.759E-04 0.000E+00

     total cpu time spent up to now is       40.6 secs

     End of self-consistent calculation

          k = 0.0000 0.0000 0.0000 (  5565 PWs)   bands (ev):

   -20.1388 -20.0256  -8.6415  -7.8161  -3.7001  -3.7001  -3.6941  -3.6941
     2.0943   2.4335   2.8793   4.1331

          k = 0.0000 0.1442 0.0000 (  5582 PWs)   bands (ev):

   -19.7701 -19.6596  -8.1955  -7.3828  -5.0720  -5.0555  -4.3983  -4.3865
     2.5987   2.9395   3.3856   4.6371

          k = 0.0000 0.2884 0.0000 (  5566 PWs)   bands (ev):

   -18.6735 -18.5709  -8.0632  -8.0280  -6.8848  -6.1159  -5.6977  -5.6814
     4.1083   4.4481   4.9036   6.1164

          k = 0.0000 0.4326 0.0000 (  5594 PWs)   bands (ev):

   -16.8870 -16.7974 -11.3312 -11.2770  -6.6990  -6.6806  -4.8492  -4.1922
     2.9654   3.3807   6.5918   6.8960

          k =-0.0000-0.5768 0.0000 (  5604 PWs)   bands (ev):

   -14.8815 -14.8401 -13.8379 -13.8063  -7.0593  -7.0404  -3.1258  -2.8321
     0.9175   1.2269   6.7366   6.8885

          k = 0.1249 0.2163 0.0000 (  5559 PWs)   bands (ev):

   -19.0374 -18.9322  -7.3158  -6.8602  -6.8452  -6.5308  -5.7862  -5.7756
     3.6065   3.9493   4.3986   5.6434

          k = 0.1249 0.3605 0.0000 (  5578 PWs)   bands (ev):

   -17.5949 -17.5001  -9.6418  -9.6023  -7.2992  -7.2755  -5.6210  -4.9053
     4.4451   4.7240   5.6133   5.9656

          k = 0.1249 0.5047 0.0000 (  5571 PWs)   bands (ev):

   -15.5278 -15.4501 -12.6332 -12.5751  -8.0648  -8.0363  -3.4288  -2.9216
     1.4492   1.7958   8.2723   8.4344

          k = 0.2498 0.4326 0.0000 (  5528 PWs)   bands (ev):

   -15.8555 -15.7737 -11.1460 -11.1186  -9.5711  -9.5508  -3.6479  -3.0437
     2.0844   2.3292   8.0828   8.3613

          k = 0.2498 0.5768 0.0000 (  5540 PWs)   bands (ev):

   -13.9365 -13.8991 -13.0492 -13.0328 -10.3590 -10.3224  -1.7866  -1.5049
     0.3346   0.3777   9.9913  10.0623

     the Fermi energy is    -0.4079 ev

     WARNING: integrated charge=    16.00000183, expected=    16.00000000

!    total energy              =     -47.88501621 Ry
     estimated scf accuracy    <          9.1E-12 Ry
     smearing contrib. (-TS)   =       0.00000003 Ry
     internal energy E=F+TS    =     -47.88501624 Ry

     The total energy is F=E-TS. E is the sum of the following terms:
     one-electron contribution =    -522.95067557 Ry
     hartree contribution      =     265.06517947 Ry
     xc contribution           =     -16.66169186 Ry
     ewald contribution        =     226.66217172 Ry

     convergence has been achieved in  18 iterations

     negative rho (up, down):  1.759E-04 0.000E+00

     Forces acting on atoms (cartesian axes, Ry/au):

     atom    1 type  1   force =    -0.00000000   -0.00000000    0.00085384
     atom    2 type  1   force =     0.00000000    0.00000000    0.00111066
     atom    3 type  1   force =     0.00000000    0.00000000   -0.00085384
     atom    4 type  1   force =     0.00000000    0.00000000   -0.00111066

     Total force =     0.001981     Total SCF correction =     0.000013


     Computing stress (Cartesian axis) and pressure


     negative rho (up, down):  1.759E-04 0.000E+00
          total   stress  (Ry/bohr**3)                   (kbar)     P=       -2.27
  -0.00001086  -0.00000000   0.00000000           -1.60       -0.00        0.00
  -0.00000000  -0.00001086   0.00000000           -0.00       -1.60        0.00
   0.00000000   0.00000000  -0.00002447            0.00        0.00       -3.60

     Energy error            =      9.4E-06 Ry
     Gradient error          =      1.1E-03 Ry/Bohr
     Cell gradient error     =      1.6E+00 kbar

     number of scf cycles    =   4
     number of bfgs steps    =   3

     enthalpy           old  =     -47.8850068072 Ry
     enthalpy           new  =     -47.8850162141 Ry

     CASE: enthalpy          _new < enthalpy          _old

     new trust radius        =       0.0046526829 bohr
     new conv_thr            =            1.0E-11 Ry

     new unit-cell volume =    711.15907 a.u.^3 (   105.38290 Ang^3 )
     density =      0.75702 g/cm^3

CELL_PARAMETERS (alat=  4.65610675)
   1.001107468  -0.000000000   0.000000000
  -0.500553734   0.866984500   0.000000000
   0.000000000   0.000000000   8.117194158

ATOMIC_POSITIONS (crystal)
C            -0.0000000000        0.0000000000        0.4127911105
C             0.3333333330        0.6666666660        0.4127607776
C            -0.0000000000       -0.0000000000        0.5872088895
C             0.6666666660        0.3333333330        0.5872392224



     Writing config-only to output data dir ../tmp/gr.save/
     NEW-OLD atomic charge density approx. for the potential

     Check: negative core charge=   -0.000003

     negative rho (up, down):  1.769E-04 0.000E+00
     extrapolated charge   16.00705, renormalised to   16.00000

     total cpu time spent up to now is       41.4 secs

     Self-consistent Calculation

     iteration #  1     ecut=    60.00 Ry     beta= 0.70
     Davidson diagonalization with overlap
     ethr =  1.00E-06,  avg # of iterations =  8.8

     negative rho (up, down):  1.745E-04 0.000E+00

     total cpu time spent up to now is       41.9 secs

     total energy              =     -47.88495978 Ry
     estimated scf accuracy    <       0.00004001 Ry

     iteration #  2     ecut=    60.00 Ry     beta= 0.70
     Davidson diagonalization with overlap
     ethr =  2.50E-07,  avg # of iterations =  9.0

     negative rho (up, down):  1.748E-04 0.000E+00

     total cpu time spent up to now is       42.3 secs

     total energy              =     -47.88502198 Ry
     estimated scf accuracy    <       0.00017915 Ry

     iteration #  3     ecut=    60.00 Ry     beta= 0.70
     Davidson diagonalization with overlap
     ethr =  2.50E-07,  avg # of iterations =  2.7

     negative rho (up, down):  1.744E-04 0.000E+00

     total cpu time spent up to now is       42.6 secs

     WARNING: integrated charge=    16.00000171, expected=    16.00000000

     total energy              =     -47.88501812 Ry
     estimated scf accuracy    <       0.00003567 Ry

     iteration #  4     ecut=    60.00 Ry     beta= 0.70
     Davidson diagonalization with overlap
     ethr =  2.23E-07,  avg # of iterations =  2.8

     negative rho (up, down):  1.747E-04 0.000E+00

     total cpu time spent up to now is       42.8 secs

     WARNING: integrated charge=    16.00000182, expected=    16.00000000

     total energy              =     -47.88502760 Ry
     estimated scf accuracy    <       0.00000026 Ry

     iteration #  5     ecut=    60.00 Ry     beta= 0.70
     Davidson diagonalization with overlap
     ethr =  1.64E-09,  avg # of iterations = 12.7

     negative rho (up, down):  1.750E-04 0.000E+00

     total cpu time spent up to now is       43.5 secs

     WARNING: integrated charge=    16.00000183, expected=    16.00000000

     total energy              =     -47.88502960 Ry
     estimated scf accuracy    <       0.00000023 Ry

     iteration #  6     ecut=    60.00 Ry     beta= 0.70
     Davidson diagonalization with overlap
     ethr =  1.42E-09,  avg # of iterations =  3.8

     negative rho (up, down):  1.751E-04 0.000E+00

     total cpu time spent up to now is       43.8 secs

     WARNING: integrated charge=    16.00000187, expected=    16.00000000

     total energy              =     -47.88502969 Ry
     estimated scf accuracy    <       0.00000008 Ry

     iteration #  7     ecut=    60.00 Ry     beta= 0.70
     Davidson diagonalization with overlap
     ethr =  5.07E-10,  avg # of iterations =  2.3

     negative rho (up, down):  1.751E-04 0.000E+00

     total cpu time spent up to now is       44.0 secs

     WARNING: integrated charge=    16.00000187, expected=    16.00000000

     total energy              =     -47.88502970 Ry
     estimated scf accuracy    <          8.7E-09 Ry

     iteration #  8     ecut=    60.00 Ry     beta= 0.70
     Davidson diagonalization with overlap
     ethr =  5.42E-11,  avg # of iterations =  5.8

     negative rho (up, down):  1.751E-04 0.000E+00

     total cpu time spent up to now is       44.4 secs

     WARNING: integrated charge=    16.00000187, expected=    16.00000000

     total energy              =     -47.88502972 Ry
     estimated scf accuracy    <          2.8E-09 Ry

     iteration #  9     ecut=    60.00 Ry     beta= 0.70
     Davidson diagonalization with overlap
     ethr =  1.76E-11,  avg # of iterations =  3.0

     negative rho (up, down):  1.751E-04 0.000E+00

     total cpu time spent up to now is       44.7 secs

     WARNING: integrated charge=    16.00000187, expected=    16.00000000

     total energy              =     -47.88502972 Ry
     estimated scf accuracy    <          3.1E-09 Ry

     iteration # 10     ecut=    60.00 Ry     beta= 0.70
     Davidson diagonalization with overlap
     ethr =  1.76E-11,  avg # of iterations =  1.0

     negative rho (up, down):  1.751E-04 0.000E+00

     total cpu time spent up to now is       44.9 secs

     WARNING: integrated charge=    16.00000188, expected=    16.00000000

     total energy              =     -47.88502972 Ry
     estimated scf accuracy    <          3.2E-09 Ry

     iteration # 11     ecut=    60.00 Ry     beta= 0.70
     Davidson diagonalization with overlap
     ethr =  1.76E-11,  avg # of iterations =  1.0

     negative rho (up, down):  1.751E-04 0.000E+00

     total cpu time spent up to now is       45.1 secs

     WARNING: integrated charge=    16.00000188, expected=    16.00000000

     total energy              =     -47.88502972 Ry
     estimated scf accuracy    <          2.8E-09 Ry

     iteration # 12     ecut=    60.00 Ry     beta= 0.70
     Davidson diagonalization with overlap
     ethr =  1.72E-11,  avg # of iterations =  1.1

     negative rho (up, down):  1.751E-04 0.000E+00

     total cpu time spent up to now is       45.4 secs

     WARNING: integrated charge=    16.00000188, expected=    16.00000000

     total energy              =     -47.88502972 Ry
     estimated scf accuracy    <          1.2E-09 Ry

     iteration # 13     ecut=    60.00 Ry     beta= 0.70
     Davidson diagonalization with overlap
     ethr =  7.79E-12,  avg # of iterations =  1.4

     negative rho (up, down):  1.751E-04 0.000E+00

     total cpu time spent up to now is       45.6 secs

     WARNING: integrated charge=    16.00000188, expected=    16.00000000

     total energy              =     -47.88502972 Ry
     estimated scf accuracy    <          9.0E-10 Ry

     iteration # 14     ecut=    60.00 Ry     beta= 0.70
     Davidson diagonalization with overlap
     ethr =  5.65E-12,  avg # of iterations =  1.1

     negative rho (up, down):  1.751E-04 0.000E+00

     total cpu time spent up to now is       45.8 secs

     WARNING: integrated charge=    16.00000188, expected=    16.00000000

     total energy              =     -47.88502972 Ry
     estimated scf accuracy    <          1.1E-09 Ry

     iteration # 15     ecut=    60.00 Ry     beta= 0.70
     Davidson diagonalization with overlap
     ethr =  5.65E-12,  avg # of iterations =  1.2

     negative rho (up, down):  1.751E-04 0.000E+00

     total cpu time spent up to now is       46.1 secs

     WARNING: integrated charge=    16.00000188, expected=    16.00000000

     total energy              =     -47.88502972 Ry
     estimated scf accuracy    <          6.5E-10 Ry

     iteration # 16     ecut=    60.00 Ry     beta= 0.70
     Davidson diagonalization with overlap
     ethr =  4.08E-12,  avg # of iterations =  1.0

     negative rho (up, down):  1.751E-04 0.000E+00

     total cpu time spent up to now is       46.3 secs

     WARNING: integrated charge=    16.00000188, expected=    16.00000000

     total energy              =     -47.88502972 Ry
     estimated scf accuracy    <          5.9E-10 Ry

     iteration # 17     ecut=    60.00 Ry     beta= 0.70
     Davidson diagonalization with overlap
     ethr =  3.72E-12,  avg # of iterations =  1.0

     negative rho (up, down):  1.751E-04 0.000E+00

     total cpu time spent up to now is       46.5 secs

     WARNING: integrated charge=    16.00000188, expected=    16.00000000

     total energy              =     -47.88502972 Ry
     estimated scf accuracy    <          5.6E-10 Ry

     iteration # 18     ecut=    60.00 Ry     beta= 0.70
     Davidson diagonalization with overlap
     ethr =  3.51E-12,  avg # of iterations =  1.1

     negative rho (up, down):  1.751E-04 0.000E+00

     total cpu time spent up to now is       46.7 secs

     WARNING: integrated charge=    16.00000188, expected=    16.00000000

     total energy              =     -47.88502972 Ry
     estimated scf accuracy    <          5.1E-10 Ry

     iteration # 19     ecut=    60.00 Ry     beta= 0.70
     Davidson diagonalization with overlap
     ethr =  3.19E-12,  avg # of iterations =  1.2

     negative rho (up, down):  1.751E-04 0.000E+00

     total cpu time spent up to now is       47.0 secs

     WARNING: integrated charge=    16.00000188, expected=    16.00000000

     total energy              =     -47.88502972 Ry
     estimated scf accuracy    <          2.4E-10 Ry

     iteration # 20     ecut=    60.00 Ry     beta= 0.70
     Davidson diagonalization with overlap
     ethr =  1.52E-12,  avg # of iterations =  1.6

     negative rho (up, down):  1.751E-04 0.000E+00

     total cpu time spent up to now is       47.2 secs

     WARNING: integrated charge=    16.00000188, expected=    16.00000000

     total energy              =     -47.88502972 Ry
     estimated scf accuracy    <          2.0E-10 Ry

     iteration # 21     ecut=    60.00 Ry     beta= 0.70
     Davidson diagonalization with overlap
     ethr =  1.25E-12,  avg # of iterations =  1.3

     negative rho (up, down):  1.751E-04 0.000E+00

     total cpu time spent up to now is       47.4 secs

     WARNING: integrated charge=    16.00000188, expected=    16.00000000

     total energy              =     -47.88502972 Ry
     estimated scf accuracy    <          1.4E-10 Ry

     iteration # 22     ecut=    60.00 Ry     beta= 0.70
     Davidson diagonalization with overlap
     ethr =  8.68E-13,  avg # of iterations =  1.4

     negative rho (up, down):  1.751E-04 0.000E+00

     total cpu time spent up to now is       47.7 secs

     WARNING: integrated charge=    16.00000188, expected=    16.00000000

     total energy              =     -47.88502972 Ry
     estimated scf accuracy    <          1.6E-10 Ry

     iteration # 23     ecut=    60.00 Ry     beta= 0.70
     Davidson diagonalization with overlap
     ethr =  8.68E-13,  avg # of iterations =  1.0

     negative rho (up, down):  1.751E-04 0.000E+00

     total cpu time spent up to now is       47.9 secs

     WARNING: integrated charge=    16.00000188, expected=    16.00000000

     total energy              =     -47.88502972 Ry
     estimated scf accuracy    <          3.3E-10 Ry

     iteration # 24     ecut=    60.00 Ry     beta= 0.70
     Davidson diagonalization with overlap
     ethr =  8.68E-13,  avg # of iterations =  1.4

     negative rho (up, down):  1.751E-04 0.000E+00

     total cpu time spent up to now is       48.1 secs

     WARNING: integrated charge=    16.00000188, expected=    16.00000000

     total energy              =     -47.88502972 Ry
     estimated scf accuracy    <          5.6E-10 Ry

     iteration # 25     ecut=    60.00 Ry     beta= 0.70
     Davidson diagonalization with overlap
     ethr =  8.68E-13,  avg # of iterations =  4.0

     negative rho (up, down):  1.751E-04 0.000E+00

     total cpu time spent up to now is       48.4 secs

     WARNING: integrated charge=    16.00000188, expected=    16.00000000

     total energy              =     -47.88502972 Ry
     estimated scf accuracy    <          2.5E-11 Ry

     iteration # 26     ecut=    60.00 Ry     beta= 0.70
     Davidson diagonalization with overlap
     ethr =  1.55E-13,  avg # of iterations =  4.3

     negative rho (up, down):  1.751E-04 0.000E+00

     total cpu time spent up to now is       48.7 secs

     End of self-consistent calculation

          k = 0.0000 0.0000 0.0000 (  5565 PWs)   bands (ev):

   -20.1373 -20.0228  -8.6430  -7.8117  -3.7034  -3.7034  -3.6973  -3.6973
     2.0977   2.4372   2.8823   4.1362

          k = 0.0000 0.1442 0.0000 (  5582 PWs)   bands (ev):

   -19.7687 -19.6569  -8.1973  -7.3787  -5.0751  -5.0583  -4.4011  -4.3892
     2.6018   2.9429   3.3884   4.6400

          k = 0.0000 0.2884 0.0000 (  5566 PWs)   bands (ev):

   -18.6725 -18.5687  -8.0654  -8.0297  -6.8871  -6.1127  -5.6998  -5.6832
     4.1106   4.4506   4.9060   6.1181

          k = 0.0000 0.4325 0.0000 (  5594 PWs)   bands (ev):

   -16.8867 -16.7960 -11.3323 -11.2774  -6.7005  -6.6819  -4.8524  -4.1906
     2.9589   3.3772   6.5921   6.8867

          k =-0.0000-0.5767 0.0000 (  5604 PWs)   bands (ev):

   -14.8825 -14.8407 -13.8370 -13.8049  -7.0607  -7.0415  -3.1292  -2.8330
     0.9136   1.2244   6.7261   6.8796

          k = 0.1249 0.2163 0.0000 (  5559 PWs)   bands (ev):

   -19.0363 -18.9299  -7.3180  -6.8628  -6.8476  -6.5272  -5.7882  -5.7774
     3.6091   3.9521   4.4011   5.6459

          k = 0.1249 0.3604 0.0000 (  5578 PWs)   bands (ev):

   -17.5943 -17.4984  -9.6436  -9.6036  -7.3005  -7.2766  -5.6240  -4.9029
     4.4377   4.7189   5.6148   5.9673

          k = 0.1249 0.5046 0.0000 (  5571 PWs)   bands (ev):

   -15.5281 -15.4494 -12.6337 -12.5749  -8.0658  -8.0370  -3.4325  -2.9214
     1.4440   1.7929   8.2617   8.4264

          k = 0.2497 0.4325 0.0000 (  5528 PWs)   bands (ev):

   -15.8556 -15.7728 -11.1477 -11.1200  -9.5709  -9.5503  -3.6517  -3.0429
     2.0784   2.3254   8.0827   8.3607

          k = 0.2497 0.5767 0.0000 (  5540 PWs)   bands (ev):

   -13.9378 -13.8999 -13.0493 -13.0328 -10.3587 -10.3216  -1.7908  -1.5067
     0.3307   0.3748   9.9862  10.0592

     the Fermi energy is    -0.4106 ev

     WARNING: integrated charge=    16.00000188, expected=    16.00000000

!    total energy              =     -47.88502972 Ry
     estimated scf accuracy    <          4.4E-12 Ry
     smearing contrib. (-TS)   =       0.00000003 Ry
     internal energy E=F+TS    =     -47.88502974 Ry

     The total energy is F=E-TS. E is the sum of the following terms:
     one-electron contribution =    -523.22107955 Ry
     hartree contribution      =     265.19885956 Ry
     xc contribution           =     -16.65984795 Ry
     ewald contribution        =     226.79703820 Ry

     convergence has been achieved in  26 iterations

     negative rho (up, down):  1.751E-04 0.000E+00

     Forces acting on atoms (cartesian axes, Ry/au):

     atom    1 type  1   force =    -0.00000000   -0.00000000    0.00075665
     atom    2 type  1   force =     0.00000000    0.00000000    0.00117152
     atom    3 type  1   force =     0.00000000    0.00000000   -0.00075665
     atom    4 type  1   force =     0.00000000    0.00000000   -0.00117152

     Total force =     0.001972     Total SCF correction =     0.000006


     Computing stress (Cartesian axis) and pressure


     negative rho (up, down):  1.751E-04 0.000E+00
          total   stress  (Ry/bohr**3)                   (kbar)     P=       -2.85
  -0.00001707  -0.00000000   0.00000000           -2.51       -0.00        0.00
[...]
     Davidson diagonalization with overlap
     c_bands:  1 eigenvalues not converged
     c_bands:  3 eigenvalues not converged
     c_bands:  1 eigenvalues not converged
     c_bands:  1 eigenvalues not converged
     ethr =  1.06E-04,  avg # of iterations = 16.3

     negative rho (up, down):  1.283E-04 0.000E+00

     total cpu time spent up to now is      117.3 secs

     WARNING: integrated charge=    16.00000243, expected=    16.00000000

     total energy              =     -47.89807578 Ry
     estimated scf accuracy    <       0.02957058 Ry

     iteration #  4     ecut=    60.00 Ry     beta= 0.70
     Davidson diagonalization with overlap
     ethr =  1.06E-04,  avg # of iterations =  3.1

     negative rho (up, down):  1.365E-04 0.000E+00

     total cpu time spent up to now is      117.6 secs

     WARNING: integrated charge=    16.00000301, expected=    16.00000000

     total energy              =     -47.88854039 Ry
     estimated scf accuracy    <       0.03008422 Ry

     iteration #  5     ecut=    60.00 Ry     beta= 0.70
     Davidson diagonalization with overlap
     ethr =  1.06E-04,  avg # of iterations =  1.2

     negative rho (up, down):  3.046E-04 0.000E+00

     total cpu time spent up to now is      117.8 secs

     WARNING: integrated charge=    16.00000484, expected=    16.00000000

     total energy              =     -47.88156666 Ry
     estimated scf accuracy    <       0.01345134 Ry

     iteration #  6     ecut=    60.00 Ry     beta= 0.70
     Davidson diagonalization with overlap
     ethr =  8.41E-05,  avg # of iterations =  5.2

     negative rho (up, down):  2.342E-04 0.000E+00

     total cpu time spent up to now is      118.2 secs

     WARNING: integrated charge=    16.00000408, expected=    16.00000000

     total energy              =     -47.88989861 Ry
     estimated scf accuracy    <       0.01763387 Ry

     iteration #  7     ecut=    60.00 Ry     beta= 0.70
     Davidson diagonalization with overlap
     ethr =  8.41E-05,  avg # of iterations =  1.5

     negative rho (up, down):  1.946E-04 0.000E+00

     total cpu time spent up to now is      118.4 secs

     WARNING: integrated charge=    16.00000350, expected=    16.00000000

     total energy              =     -47.88524008 Ry
     estimated scf accuracy    <       0.01152253 Ry

     iteration #  8     ecut=    60.00 Ry     beta= 0.70
     Davidson diagonalization with overlap
     ethr =  7.20E-05,  avg # of iterations =  1.9

     negative rho (up, down):  1.717E-04 0.000E+00

     total cpu time spent up to now is      118.6 secs

     WARNING: integrated charge=    16.00000311, expected=    16.00000000

     total energy              =     -47.88426347 Ry
     estimated scf accuracy    <       0.00305222 Ry

     iteration #  9     ecut=    60.00 Ry     beta= 0.70
     Davidson diagonalization with overlap
     ethr =  1.91E-05,  avg # of iterations =  5.3

     negative rho (up, down):  1.731E-04 0.000E+00

     total cpu time spent up to now is      118.9 secs

     WARNING: integrated charge=    16.00000311, expected=    16.00000000

     total energy              =     -47.88516819 Ry
     estimated scf accuracy    <       0.00018685 Ry

     iteration # 10     ecut=    60.00 Ry     beta= 0.70
     Davidson diagonalization with overlap
     ethr =  1.17E-06,  avg # of iterations = 11.4

     negative rho (up, down):  1.759E-04 0.000E+00

     total cpu time spent up to now is      119.4 secs

     WARNING: integrated charge=    16.00000312, expected=    16.00000000

     total energy              =     -47.88545962 Ry
     estimated scf accuracy    <       0.00012609 Ry

     iteration # 11     ecut=    60.00 Ry     beta= 0.70
     Davidson diagonalization with overlap
     ethr =  7.88E-07,  avg # of iterations =  1.7

     negative rho (up, down):  1.856E-04 0.000E+00

     total cpu time spent up to now is      119.7 secs

     WARNING: integrated charge=    16.00000303, expected=    16.00000000

     total energy              =     -47.88557522 Ry
     estimated scf accuracy    <       0.00018042 Ry

     iteration # 12     ecut=    60.00 Ry     beta= 0.70
     Davidson diagonalization with overlap
     ethr =  7.88E-07,  avg # of iterations =  2.6

     negative rho (up, down):  1.845E-04 0.000E+00

     total cpu time spent up to now is      119.9 secs

     WARNING: integrated charge=    16.00000270, expected=    16.00000000

     total energy              =     -47.88542242 Ry
     estimated scf accuracy    <       0.00035526 Ry

     iteration # 13     ecut=    60.00 Ry     beta= 0.70
     Davidson diagonalization with overlap
     ethr =  7.88E-07,  avg # of iterations =  1.2

     negative rho (up, down):  1.840E-04 0.000E+00

     total cpu time spent up to now is      120.2 secs

     WARNING: integrated charge=    16.00000267, expected=    16.00000000

     total energy              =     -47.88543600 Ry
     estimated scf accuracy    <       0.00007421 Ry

     iteration # 14     ecut=    60.00 Ry     beta= 0.70
     Davidson diagonalization with overlap
     ethr =  4.64E-07,  avg # of iterations =  1.0

     negative rho (up, down):  1.806E-04 0.000E+00

     total cpu time spent up to now is      120.4 secs

     WARNING: integrated charge=    16.00000267, expected=    16.00000000

     total energy              =     -47.88540942 Ry
     estimated scf accuracy    <       0.00008166 Ry

     iteration # 15     ecut=    60.00 Ry     beta= 0.70
     Davidson diagonalization with overlap
     ethr =  4.64E-07,  avg # of iterations =  1.3

     negative rho (up, down):  1.793E-04 0.000E+00

     total cpu time spent up to now is      120.6 secs

     WARNING: integrated charge=    16.00000268, expected=    16.00000000

     total energy              =     -47.88540645 Ry
     estimated scf accuracy    <       0.00003409 Ry

     iteration # 16     ecut=    60.00 Ry     beta= 0.70
     Davidson diagonalization with overlap
     ethr =  2.13E-07,  avg # of iterations =  4.4

     negative rho (up, down):  1.795E-04 0.000E+00

     total cpu time spent up to now is      120.9 secs

     WARNING: integrated charge=    16.00000267, expected=    16.00000000

     total energy              =     -47.88541709 Ry
     estimated scf accuracy    <       0.00001212 Ry

     iteration # 17     ecut=    60.00 Ry     beta= 0.70
     Davidson diagonalization with overlap
     ethr =  7.58E-08,  avg # of iterations =  3.2

     negative rho (up, down):  1.779E-04 0.000E+00

     total cpu time spent up to now is      121.2 secs

     WARNING: integrated charge=    16.00000267, expected=    16.00000000

     total energy              =     -47.88541572 Ry
     estimated scf accuracy    <       0.00001051 Ry

     iteration # 18     ecut=    60.00 Ry     beta= 0.70
     Davidson diagonalization with overlap
     ethr =  6.57E-08,  avg # of iterations =  3.2

     negative rho (up, down):  1.742E-04 0.000E+00

     total cpu time spent up to now is      121.4 secs

     WARNING: integrated charge=    16.00000265, expected=    16.00000000

     total energy              =     -47.88542156 Ry
     estimated scf accuracy    <       0.00000263 Ry

     iteration # 19     ecut=    60.00 Ry     beta= 0.70
     Davidson diagonalization with overlap
     ethr =  1.64E-08,  avg # of iterations = 10.5

     negative rho (up, down):  1.755E-04 0.000E+00

     total cpu time spent up to now is      122.0 secs

     WARNING: integrated charge=    16.00000267, expected=    16.00000000

     total energy              =     -47.88542445 Ry
     estimated scf accuracy    <       0.00002895 Ry

     iteration # 20     ecut=    60.00 Ry     beta= 0.70
     Davidson diagonalization with overlap
     ethr =  1.64E-08,  avg # of iterations =  2.2

     negative rho (up, down):  1.742E-04 0.000E+00

     total cpu time spent up to now is      122.3 secs

     WARNING: integrated charge=    16.00000265, expected=    16.00000000

     total energy              =     -47.88542134 Ry
     estimated scf accuracy    <       0.00001822 Ry

     iteration # 21     ecut=    60.00 Ry     beta= 0.70
     Davidson diagonalization with overlap
     ethr =  1.64E-08,  avg # of iterations =  2.6

     negative rho (up, down):  1.742E-04 0.000E+00

     total cpu time spent up to now is      122.5 secs

     WARNING: integrated charge=    16.00000265, expected=    16.00000000

     total energy              =     -47.88542027 Ry
     estimated scf accuracy    <       0.00001020 Ry

     iteration # 22     ecut=    60.00 Ry     beta= 0.70
     Davidson diagonalization with overlap
     ethr =  1.64E-08,  avg # of iterations =  2.3

     negative rho (up, down):  1.746E-04 0.000E+00

     total cpu time spent up to now is      122.8 secs

     WARNING: integrated charge=    16.00000265, expected=    16.00000000

     total energy              =     -47.88541794 Ry
     estimated scf accuracy    <       0.00000668 Ry

     iteration # 23     ecut=    60.00 Ry     beta= 0.70
     Davidson diagonalization with overlap
     ethr =  1.64E-08,  avg # of iterations =  3.7

     negative rho (up, down):  1.748E-04 0.000E+00

     total cpu time spent up to now is      123.1 secs

     WARNING: integrated charge=    16.00000265, expected=    16.00000000

     total energy              =     -47.88541892 Ry
     estimated scf accuracy    <       0.00000180 Ry

     iteration # 24     ecut=    60.00 Ry     beta= 0.70
     Davidson diagonalization with overlap
     ethr =  1.13E-08,  avg # of iterations =  1.3

     negative rho (up, down):  1.747E-04 0.000E+00

     total cpu time spent up to now is      123.3 secs

     WARNING: integrated charge=    16.00000265, expected=    16.00000000

     total energy              =     -47.88541955 Ry
     estimated scf accuracy    <       0.00000162 Ry

     iteration # 25     ecut=    60.00 Ry     beta= 0.70
     Davidson diagonalization with overlap
     ethr =  1.01E-08,  avg # of iterations =  1.0

     negative rho (up, down):  1.758E-04 0.000E+00

     total cpu time spent up to now is      123.5 secs

     WARNING: integrated charge=    16.00000266, expected=    16.00000000

     total energy              =     -47.88541790 Ry
     estimated scf accuracy    <       0.00000243 Ry

     iteration # 26     ecut=    60.00 Ry     beta= 0.70
     Davidson diagonalization with overlap
     ethr =  1.01E-08,  avg # of iterations =  3.3

     negative rho (up, down):  1.754E-04 0.000E+00

     total cpu time spent up to now is      123.8 secs

     WARNING: integrated charge=    16.00000266, expected=    16.00000000

     total energy              =     -47.88541849 Ry
     estimated scf accuracy    <       0.00000007 Ry

     iteration # 27     ecut=    60.00 Ry     beta= 0.70
     Davidson diagonalization with overlap
     ethr =  4.52E-10,  avg # of iterations =  8.6

     negative rho (up, down):  1.751E-04 0.000E+00

     total cpu time spent up to now is      124.3 secs

     WARNING: integrated charge=    16.00000265, expected=    16.00000000

     total energy              =     -47.88541869 Ry
     estimated scf accuracy    <       0.00000014 Ry

     iteration # 28     ecut=    60.00 Ry     beta= 0.70
     Davidson diagonalization with overlap
     ethr =  4.52E-10,  avg # of iterations =  4.4

     negative rho (up, down):  1.752E-04 0.000E+00

     total cpu time spent up to now is      124.6 secs

     WARNING: integrated charge=    16.00000265, expected=    16.00000000

     total energy              =     -47.88541872 Ry
     estimated scf accuracy    <          9.2E-09 Ry

     iteration # 29     ecut=    60.00 Ry     beta= 0.70
     Davidson diagonalization with overlap
     ethr =  5.75E-11,  avg # of iterations =  4.6

     negative rho (up, down):  1.752E-04 0.000E+00

     total cpu time spent up to now is      125.0 secs

     WARNING: integrated charge=    16.00000265, expected=    16.00000000

     total energy              =     -47.88541873 Ry
     estimated scf accuracy    <          3.5E-09 Ry

     iteration # 30     ecut=    60.00 Ry     beta= 0.70
     Davidson diagonalization with overlap
     ethr =  2.21E-11,  avg # of iterations =  4.2

     negative rho (up, down):  1.752E-04 0.000E+00

     total cpu time spent up to now is      125.3 secs

     WARNING: integrated charge=    16.00000265, expected=    16.00000000

     total energy              =     -47.88541873 Ry
     estimated scf accuracy    <          2.6E-09 Ry

     iteration # 31     ecut=    60.00 Ry     beta= 0.70
     Davidson diagonalization with overlap
     ethr =  1.64E-11,  avg # of iterations =  2.0

     negative rho (up, down):  1.752E-04 0.000E+00

     total cpu time spent up to now is      125.5 secs

     WARNING: integrated charge=    16.00000265, expected=    16.00000000

     total energy              =     -47.88541873 Ry
     estimated scf accuracy    <          2.9E-11 Ry

     iteration # 32     ecut=    60.00 Ry     beta= 0.70
     Davidson diagonalization with overlap
     c_bands:  5 eigenvalues not converged
     ethr =  1.79E-13,  avg # of iterations = 15.1

     negative rho (up, down):  1.752E-04 0.000E+00

     total cpu time spent up to now is      126.3 secs

     WARNING: integrated charge=    16.00000265, expected=    16.00000000

     total energy              =     -47.88541873 Ry
     estimated scf accuracy    <          3.6E-10 Ry

     iteration # 33     ecut=    60.00 Ry     beta= 0.70
     Davidson diagonalization with overlap
     ethr =  1.79E-13,  avg # of iterations =  4.8

     negative rho (up, down):  1.752E-04 0.000E+00

     total cpu time spent up to now is      126.6 secs

     WARNING: integrated charge=    16.00000265, expected=    16.00000000

     total energy              =     -47.88541873 Ry
     estimated scf accuracy    <          8.5E-11 Ry

     iteration # 34     ecut=    60.00 Ry     beta= 0.70
     Davidson diagonalization with overlap
     ethr =  1.79E-13,  avg # of iterations =  3.9

     negative rho (up, down):  1.752E-04 0.000E+00

     total cpu time spent up to now is      126.9 secs

     End of self-consistent calculation

          k = 0.0000 0.0000 0.0000 (  5565 PWs)   bands (ev):

   -20.1850 -20.0131  -8.7726  -7.6999  -3.7034  -3.7034  -3.6927  -3.6927
     2.1264   2.4479   2.9210   4.1237

          k = 0.0000 0.1443 0.0000 (  5582 PWs)   bands (ev):

   -19.8153 -19.6473  -8.3253  -7.2679  -5.0798  -5.0521  -4.4046  -4.3845
     2.6317   2.9543   3.4284   4.6278

          k = 0.0000 0.2886 0.0000 (  5570 PWs)   bands (ev):

   -18.7158 -18.5591  -8.0792  -8.0223  -7.0096  -6.0058  -5.7075  -5.6798
     4.1441   4.4636   4.9498   6.1030

          k = 0.0000 0.4328 0.0000 (  5594 PWs)   bands (ev):

   -16.9243 -16.7865 -11.3555 -11.2699  -6.7108  -6.6798  -4.9612  -4.0975
     2.8947   3.4497   6.6335   6.8789

          k =-0.0000-0.5771 0.0000 (  5604 PWs)   bands (ev):

   -14.9035 -14.8388 -13.8585 -13.8097  -7.0718  -7.0399  -3.1983  -2.8021
     0.8920   1.2741   6.7076   6.9326

          k = 0.1249 0.2164 0.0000 (  5567 PWs)   bands (ev):

   -19.0807 -18.9203  -7.4426  -6.8686  -6.8439  -6.4187  -5.7942  -5.7764
     3.6414   3.9649   4.4436   5.6348

          k = 0.1249 0.3607 0.0000 (  5580 PWs)   bands (ev):

   -17.6343 -17.4889  -9.6600  -9.5968  -7.3132  -7.2744  -5.7397  -4.8016
     4.3898   4.7720   5.6531   5.9826

          k = 0.1249 0.5050 0.0000 (  5583 PWs)   bands (ev):

   -15.5606 -15.4401 -12.6598 -12.5687  -8.0810  -8.0346  -3.5239  -2.8521
     1.3956   1.8500   8.2442   8.4865

          k = 0.2499 0.4328 0.0000 (  5536 PWs)   bands (ev):

   -15.8898 -15.7633 -11.1610 -11.1173  -9.5874  -9.5550  -3.7534  -2.9551
     2.0303   2.3676   8.1273   8.3721

          k = 0.2499 0.5771 0.0000 (  5556 PWs)   bands (ev):

   -13.9568 -13.8980 -13.0627 -13.0376 -10.3810 -10.3226  -1.8599  -1.4795
     0.3237   0.4008   9.9721  10.1357

     the Fermi energy is    -0.3978 ev

     WARNING: integrated charge=    16.00000265, expected=    16.00000000

!    total energy              =     -47.88541873 Ry
     estimated scf accuracy    <          6.1E-12 Ry
     smearing contrib. (-TS)   =       0.00000004 Ry
     internal energy E=F+TS    =     -47.88541877 Ry

     The total energy is F=E-TS. E is the sum of the following terms:
     one-electron contribution =    -542.98500178 Ry
     hartree contribution      =     275.08307358 Ry
     xc contribution           =     -16.67136388 Ry
     ewald contribution        =     236.68787332 Ry

     convergence has been achieved in  34 iterations

     negative rho (up, down):  1.752E-04 0.000E+00

     Forces acting on atoms (cartesian axes, Ry/au):

     atom    1 type  1   force =     0.00000000    0.00000000    0.00000634
     atom    2 type  1   force =     0.00000000    0.00000000    0.00000706
     atom    3 type  1   force =    -0.00000000   -0.00000000   -0.00000634
     atom    4 type  1   force =     0.00000000    0.00000000   -0.00000706

     Total force =     0.000013     Total SCF correction =     0.000001


     Computing stress (Cartesian axis) and pressure


     negative rho (up, down):  1.752E-04 0.000E+00
          total   stress  (Ry/bohr**3)                   (kbar)     P=       -0.26
   0.00000019   0.00000000   0.00000000            0.03        0.00        0.00
   0.00000000   0.00000019   0.00000000            0.00        0.03        0.00
  -0.00000000  -0.00000000  -0.00000574           -0.00       -0.00       -0.84


     Writing all to output data dir ../tmp/gr.save/
 
     init_run     :      9.50s CPU      9.64s WALL (       2 calls)
     electrons    :     87.43s CPU    105.77s WALL (      16 calls)
     update_pot   :      2.89s CPU      3.07s WALL (      14 calls)
     forces       :      2.36s CPU      2.57s WALL (      16 calls)
     stress       :      5.80s CPU      6.18s WALL (      16 calls)

     Called by init_run:
     wfcinit      :      0.14s CPU      0.17s WALL (       2 calls)
     potinit      :      9.00s CPU      9.02s WALL (       2 calls)
     hinit0       :      0.23s CPU      0.31s WALL (       2 calls)

     Called by electrons:
     c_bands      :     62.20s CPU     74.51s WALL (     313 calls)
     sum_band     :      9.14s CPU     10.97s WALL (     313 calls)
     v_of_rho     :     24.51s CPU     28.09s WALL (     328 calls)
     newd         :      0.76s CPU      1.51s WALL (     328 calls)
     mix_rho      :      0.40s CPU      0.46s WALL (     313 calls)
     vdW_kernel   :      8.81s CPU      8.82s WALL (       1 calls)

     Called by c_bands:
     init_us_2    :      0.76s CPU      0.91s WALL (    6600 calls)
     init_us_2:cp :      0.75s CPU      0.90s WALL (    6600 calls)
     cegterg      :     59.42s CPU     71.29s WALL (    3156 calls)

     Called by *egterg:
     cdiaghg      :      1.74s CPU      2.09s WALL (   17474 calls)
     h_psi        :     50.58s CPU     60.65s WALL (   17665 calls)
     s_psi        :      1.13s CPU      1.37s WALL (   17665 calls)
     g_psi        :      0.26s CPU      0.31s WALL (   14489 calls)

     Called by h_psi:
     h_psi:calbec :      1.55s CPU      1.89s WALL (   17665 calls)
     vloc_psi     :     47.76s CPU     57.22s WALL (   17665 calls)
     add_vuspsi   :      1.16s CPU      1.41s WALL (   17665 calls)

     General routines
     calbec       :      2.01s CPU      2.44s WALL (   21595 calls)
     fft          :      6.24s CPU      8.52s WALL (   22727 calls)
     ffts         :      0.09s CPU      0.11s WALL (     313 calls)
     fftw         :     51.75s CPU     62.09s WALL (  303030 calls)
 
     Parallel routines
 
     PWSCF        :   1m48.15s CPU   2m 7.48s WALL

 
   This run was terminated on:   0:31:13   2Feb2022            

=------------------------------------------------------------------------------=
   JOB DONE.
=------------------------------------------------------------------------------=
