
     Program PWSCF v.7.0 starts on  2Feb2022 at  0:17:52 

     This program is part of the open-source Quantum ESPRESSO suite
     for quantum simulation of materials; please cite
         "P. Giannozzi et al., J. Phys.:Condens. Matter 21 395502 (2009);
         "P. Giannozzi et al., J. Phys.:Condens. Matter 29 465901 (2017);
         "P. Giannozzi et al., J. Chem. Phys. 152 154105 (2020);
          URL http://www.quantum-espresso.org", 
     in publications or presentations arising from this work. More details at
     http://www.quantum-espresso.org/quote

     Parallel version (MPI), running on     4 processors

     MPI processes distributed on     1 nodes
     R & G space division:  proc/nbgrp/npool/nimage =       4
     242361 MiB available memory on the printing compute node when the environment starts
 
     Waiting for input...
     Reading input from standard input

     Current dimensions of program PWSCF are:
     Max number of different atomic species (ntypx) = 10
     Max number of k-points (npk) =  40000
     Max angular momentum in pseudopotentials (lmaxx) =  4

     IMPORTANT: XC functional enforced from input :
     Exchange-correlation= PBE
                           (   1   4   3   4   0   0   0)
     Any further DFT definition will be discarded
     Please, verify this is what you really want


     Subspace diagonalization in iterative solution of the eigenvalue problem:
     a serial algorithm will be used

 
     Parallelization info
     --------------------
     sticks:   dense  smooth     PW     G-vecs:    dense   smooth      PW
     Min          90      90     27                11152    11152    1895
     Max          91      91     28                11175    11175    1922
     Sum         361     361    109                44659    44659    7615
 
     Using Slab Decomposition
 


     bravais-lattice index     =            4
     lattice parameter (alat)  =       4.6561  a.u.
     unit-cell volume          =     709.5865 (a.u.)^3
     number of atoms/cell      =            4
     number of atomic types    =            1
     number of electrons       =        16.00
     number of Kohn-Sham states=           12
     kinetic-energy cutoff     =      60.0000  Ry
     charge density cutoff     =     240.0000  Ry
     scf convergence threshold =      1.0E-09
     mixing beta               =       0.7000
     number of iterations used =            8  plain     mixing
     energy convergence thresh.=      1.0E-05
     force convergence thresh. =      1.0E-04
     press convergence thresh. =      5.0E-02
     Exchange-correlation= PBE
                           (   1   4   3   4   0   0   0)
     nstep                     =           50


     celldm(1)=   4.656107  celldm(2)=   0.000000  celldm(3)=   8.117194
     celldm(4)=   0.000000  celldm(5)=   0.000000  celldm(6)=   0.000000

     crystal axes: (cart. coord. in units of alat)
               a(1) = (   1.000000   0.000000   0.000000 )  
               a(2) = (  -0.500000   0.866025   0.000000 )  
               a(3) = (   0.000000   0.000000   8.117194 )  

     reciprocal axes: (cart. coord. in units 2 pi/alat)
               b(1) = (  1.000000  0.577350  0.000000 )  
               b(2) = (  0.000000  1.154701  0.000000 )  
               b(3) = (  0.000000  0.000000  0.123195 )  


     PseudoPot. # 1 for C  read from file:
     ../pseudo/C.pbe-n-rrkjus_psl.0.1.UPF
     MD5 check sum: 96a6a315177d77e6c95bf6fd3870f9e3
     Pseudo is Ultrasoft + core correction, Zval =  4.0
     Generated using &quot;atomic&quot; code by A. Dal Corso  v.6.3MaX
     Using radial grid of 1073 points,  4 beta functions with: 
                l(1) =   0
                l(2) =   0
                l(3) =   1
                l(4) =   1
     Q(r) pseudized with 0 coefficients 


     atomic species   valence    mass     pseudopotential
        C              4.00    12.01070     C ( 1.00)

     12 Sym. Ops., with inversion, found



   Cartesian axes

     site n.     atom                  positions (alat units)
         1           C   tau(   1) = (   0.0000000   0.0000000   3.3483426  )
         2           C   tau(   2) = (   0.0000000   0.5773503   3.3483426  )
         3           C   tau(   3) = (   0.0000000   0.0000000   4.7688516  )
         4           C   tau(   4) = (   0.5000000   0.2886751   4.7688516  )

     number of k points=    10  Marzari-Vanderbilt smearing, width (Ry)=  0.0200
                       cart. coord. in units 2pi/alat
        k(    1) = (   0.0000000   0.0000000   0.0000000), wk =   0.0312500
        k(    2) = (   0.0000000   0.1443376   0.0000000), wk =   0.1875000
        k(    3) = (   0.0000000   0.2886751   0.0000000), wk =   0.1875000
        k(    4) = (   0.0000000   0.4330127   0.0000000), wk =   0.1875000
        k(    5) = (   0.0000000  -0.5773503   0.0000000), wk =   0.0937500
        k(    6) = (   0.1250000   0.2165064   0.0000000), wk =   0.1875000
        k(    7) = (   0.1250000   0.3608439   0.0000000), wk =   0.3750000
        k(    8) = (   0.1250000   0.5051815   0.0000000), wk =   0.3750000
        k(    9) = (   0.2500000   0.4330127   0.0000000), wk =   0.1875000
        k(   10) = (   0.2500000   0.5773503   0.0000000), wk =   0.1875000

     Dense  grid:    44659 G-vectors     FFT dimensions: (  24,  24, 192)

     Estimated max dynamical RAM per process >      19.86 MB

     Estimated total dynamical RAM >      79.43 MB

     Check: negative core charge=   -0.000004

     Initial potential from superposition of free atoms

     starting charge      15.9998, renormalised to      16.0000

     negative rho (up, down):  1.330E-04 0.000E+00
     Starting wfcs are   16 randomized atomic wfcs

     total cpu time spent up to now is        0.5 secs

     Self-consistent Calculation

     iteration #  1     ecut=    60.00 Ry     beta= 0.70
     Davidson diagonalization with overlap
     ethr =  1.00E-02,  avg # of iterations =  3.9

     Threshold (ethr) on eigenvalues was too large:
     Diagonalizing with lowered threshold

     Davidson diagonalization with overlap
     ethr =  6.92E-04,  avg # of iterations =  7.1

     negative rho (up, down):  4.393E-05 0.000E+00

     total cpu time spent up to now is        1.2 secs

     total energy              =     -47.77157205 Ry
     estimated scf accuracy    <       0.36357202 Ry

     iteration #  2     ecut=    60.00 Ry     beta= 0.70
     Davidson diagonalization with overlap
     ethr =  2.27E-03,  avg # of iterations =  1.5

     negative rho (up, down):  1.511E-04 0.000E+00

     total cpu time spent up to now is        1.4 secs

     total energy              =     -47.77312223 Ry
     estimated scf accuracy    <       0.02064162 Ry

     iteration #  3     ecut=    60.00 Ry     beta= 0.70
     Davidson diagonalization with overlap
     c_bands:  2 eigenvalues not converged
     c_bands:  2 eigenvalues not converged
     c_bands:  4 eigenvalues not converged
     c_bands:  4 eigenvalues not converged
     c_bands:  1 eigenvalues not converged
     c_bands:  2 eigenvalues not converged
     c_bands:  2 eigenvalues not converged
     ethr =  1.29E-04,  avg # of iterations = 17.0

     negative rho (up, down):  1.532E-04 0.000E+00

     total cpu time spent up to now is        2.1 secs

     total energy              =     -47.83227661 Ry
     estimated scf accuracy    <       0.02385299 Ry

     iteration #  4     ecut=    60.00 Ry     beta= 0.70
     Davidson diagonalization with overlap
     ethr =  1.29E-04,  avg # of iterations =  4.5

     negative rho (up, down):  1.447E-04 0.000E+00

     total cpu time spent up to now is        2.3 secs

     total energy              =     -47.84264452 Ry
     estimated scf accuracy    <       0.03114376 Ry

     iteration #  5     ecut=    60.00 Ry     beta= 0.70
     Davidson diagonalization with overlap
     ethr =  1.29E-04,  avg # of iterations =  1.2

     negative rho (up, down):  8.416E-05 0.000E+00

     total cpu time spent up to now is        2.5 secs

     WARNING: integrated charge=    15.99999773, expected=    16.00000000

     total energy              =     -47.84088472 Ry
     estimated scf accuracy    <       0.04646245 Ry

     iteration #  6     ecut=    60.00 Ry     beta= 0.70
     Davidson diagonalization with overlap
     ethr =  1.29E-04,  avg # of iterations =  1.1

     negative rho (up, down):  8.838E-05 0.000E+00

     total cpu time spent up to now is        2.7 secs

     WARNING: integrated charge=    15.99999793, expected=    16.00000000

     total energy              =     -47.83278617 Ry
     estimated scf accuracy    <       0.04422472 Ry

     iteration #  7     ecut=    60.00 Ry     beta= 0.70
     Davidson diagonalization with overlap
     ethr =  1.29E-04,  avg # of iterations =  1.1

     negative rho (up, down):  9.371E-05 0.000E+00

     total cpu time spent up to now is        2.9 secs

     WARNING: integrated charge=    15.99999821, expected=    16.00000000

     total energy              =     -47.82982403 Ry
     estimated scf accuracy    <       0.03148528 Ry

     iteration #  8     ecut=    60.00 Ry     beta= 0.70
     Davidson diagonalization with overlap
     ethr =  1.29E-04,  avg # of iterations =  1.0

     negative rho (up, down):  1.012E-04 0.000E+00

     total cpu time spent up to now is        3.1 secs

     total energy              =     -47.82590009 Ry
     estimated scf accuracy    <       0.02588915 Ry

     iteration #  9     ecut=    60.00 Ry     beta= 0.70
     Davidson diagonalization with overlap
     ethr =  1.29E-04,  avg # of iterations =  1.0

     negative rho (up, down):  1.363E-04 0.000E+00

     total cpu time spent up to now is        3.3 secs

     total energy              =     -47.81767008 Ry
     estimated scf accuracy    <       0.01859696 Ry

     iteration # 10     ecut=    60.00 Ry     beta= 0.70
     Davidson diagonalization with overlap
     ethr =  1.16E-04,  avg # of iterations =  1.0

     negative rho (up, down):  1.190E-04 0.000E+00

     total cpu time spent up to now is        3.4 secs

     total energy              =     -47.82157453 Ry
     estimated scf accuracy    <       0.00401895 Ry

     iteration # 11     ecut=    60.00 Ry     beta= 0.70
     Davidson diagonalization with overlap
     ethr =  2.51E-05,  avg # of iterations =  6.0

     negative rho (up, down):  1.165E-04 0.000E+00

     total cpu time spent up to now is        3.7 secs

     total energy              =     -47.82296795 Ry
     estimated scf accuracy    <       0.00854886 Ry

     iteration # 12     ecut=    60.00 Ry     beta= 0.70
     Davidson diagonalization with overlap
     ethr =  2.51E-05,  avg # of iterations =  1.2

     negative rho (up, down):  1.781E-04 0.000E+00

     total cpu time spent up to now is        3.9 secs

     total energy              =     -47.81725596 Ry
     estimated scf accuracy    <       0.00938517 Ry

     iteration # 13     ecut=    60.00 Ry     beta= 0.70
     Davidson diagonalization with overlap
     ethr =  2.51E-05,  avg # of iterations =  5.5

     negative rho (up, down):  1.779E-04 0.000E+00

     total cpu time spent up to now is        4.1 secs

     WARNING: integrated charge=    16.00000160, expected=    16.00000000

     total energy              =     -47.81910177 Ry
     estimated scf accuracy    <       0.00007408 Ry

     iteration # 14     ecut=    60.00 Ry     beta= 0.70
     Davidson diagonalization with overlap
     c_bands:  1 eigenvalues not converged
     c_bands:  1 eigenvalues not converged
     c_bands:  1 eigenvalues not converged
     c_bands:  4 eigenvalues not converged
     ethr =  4.63E-07,  avg # of iterations = 16.4

     negative rho (up, down):  1.739E-04 0.000E+00

     total cpu time spent up to now is        4.9 secs

     total energy              =     -47.81951233 Ry
     estimated scf accuracy    <       0.00058127 Ry

     iteration # 15     ecut=    60.00 Ry     beta= 0.70
     Davidson diagonalization with overlap
     c_bands:  1 eigenvalues not converged
     c_bands:  1 eigenvalues not converged
     ethr =  4.63E-07,  avg # of iterations =  9.9

     negative rho (up, down):  1.790E-04 0.000E+00

     total cpu time spent up to now is        5.3 secs

     WARNING: integrated charge=    16.00000164, expected=    16.00000000

     total energy              =     -47.81970362 Ry
     estimated scf accuracy    <       0.00001325 Ry

     iteration # 16     ecut=    60.00 Ry     beta= 0.70
     Davidson diagonalization with overlap
     ethr =  8.28E-08,  avg # of iterations =  7.3

     negative rho (up, down):  1.784E-04 0.000E+00

     total cpu time spent up to now is        5.6 secs

     WARNING: integrated charge=    16.00000163, expected=    16.00000000

     total energy              =     -47.81963740 Ry
     estimated scf accuracy    <       0.00033115 Ry

     iteration # 17     ecut=    60.00 Ry     beta= 0.70
     Davidson diagonalization with overlap
     ethr =  8.28E-08,  avg # of iterations =  4.3

     negative rho (up, down):  1.823E-04 0.000E+00

     total cpu time spent up to now is        5.9 secs

     WARNING: integrated charge=    16.00000168, expected=    16.00000000

     total energy              =     -47.81962137 Ry
     estimated scf accuracy    <       0.00014878 Ry

     iteration # 18     ecut=    60.00 Ry     beta= 0.70
     Davidson diagonalization with overlap
     ethr =  8.28E-08,  avg # of iterations =  3.4

     negative rho (up, down):  1.818E-04 0.000E+00

     total cpu time spent up to now is        6.1 secs

     WARNING: integrated charge=    16.00000165, expected=    16.00000000

     total energy              =     -47.81957384 Ry
     estimated scf accuracy    <       0.00012806 Ry

     iteration # 19     ecut=    60.00 Ry     beta= 0.70
     Davidson diagonalization with overlap
     ethr =  8.28E-08,  avg # of iterations =  6.1

     negative rho (up, down):  1.833E-04 0.000E+00

     total cpu time spent up to now is        6.4 secs

     WARNING: integrated charge=    16.00000163, expected=    16.00000000

     total energy              =     -47.81962560 Ry
     estimated scf accuracy    <       0.00003963 Ry

     iteration # 20     ecut=    60.00 Ry     beta= 0.70
     Davidson diagonalization with overlap
     c_bands:  2 eigenvalues not converged
     ethr =  8.28E-08,  avg # of iterations =  9.1

     negative rho (up, down):  1.848E-04 0.000E+00

     total cpu time spent up to now is        6.9 secs

     WARNING: integrated charge=    16.00000167, expected=    16.00000000

     total energy              =     -47.81971590 Ry
     estimated scf accuracy    <       0.00015408 Ry

     iteration # 21     ecut=    60.00 Ry     beta= 0.70
     Davidson diagonalization with overlap
     ethr =  8.28E-08,  avg # of iterations =  3.7

     negative rho (up, down):  1.841E-04 0.000E+00

     total cpu time spent up to now is        7.2 secs

     WARNING: integrated charge=    16.00000166, expected=    16.00000000

     total energy              =     -47.81993962 Ry
     estimated scf accuracy    <       0.00028507 Ry

     iteration # 22     ecut=    60.00 Ry     beta= 0.70
     Davidson diagonalization with overlap
     c_bands:  1 eigenvalues not converged
     ethr =  8.28E-08,  avg # of iterations =  9.0

     negative rho (up, down):  1.811E-04 0.000E+00

     total cpu time spent up to now is        7.6 secs

     total energy              =     -47.81947615 Ry
     estimated scf accuracy    <       0.00086790 Ry

     iteration # 23     ecut=    60.00 Ry     beta= 0.70
     Davidson diagonalization with overlap
     ethr =  8.28E-08,  avg # of iterations = 11.8

     negative rho (up, down):  1.818E-04 0.000E+00

     total cpu time spent up to now is        8.2 secs

     total energy              =     -47.81958811 Ry
     estimated scf accuracy    <       0.00000424 Ry

     iteration # 24     ecut=    60.00 Ry     beta= 0.70
     Davidson diagonalization with overlap
     ethr =  2.65E-08,  avg # of iterations =  5.2

     negative rho (up, down):  1.831E-04 0.000E+00

     total cpu time spent up to now is        8.5 secs

     WARNING: integrated charge=    16.00000161, expected=    16.00000000

     total energy              =     -47.81959019 Ry
     estimated scf accuracy    <       0.00000069 Ry

     iteration # 25     ecut=    60.00 Ry     beta= 0.70
     Davidson diagonalization with overlap
     ethr =  4.30E-09,  avg # of iterations =  3.4

     negative rho (up, down):  1.832E-04 0.000E+00

     total cpu time spent up to now is        8.7 secs

     WARNING: integrated charge=    16.00000161, expected=    16.00000000

     total energy              =     -47.81959031 Ry
     estimated scf accuracy    <       0.00000017 Ry

     iteration # 26     ecut=    60.00 Ry     beta= 0.70
     Davidson diagonalization with overlap
     ethr =  1.08E-09,  avg # of iterations =  5.1

     negative rho (up, down):  1.831E-04 0.000E+00

     total cpu time spent up to now is        9.0 secs

     WARNING: integrated charge=    16.00000160, expected=    16.00000000

     total energy              =     -47.81959046 Ry
     estimated scf accuracy    <       0.00000006 Ry

     iteration # 27     ecut=    60.00 Ry     beta= 0.70
     Davidson diagonalization with overlap
     ethr =  3.50E-10,  avg # of iterations =  2.8

     negative rho (up, down):  1.830E-04 0.000E+00

     total cpu time spent up to now is        9.3 secs

     WARNING: integrated charge=    16.00000160, expected=    16.00000000

     total energy              =     -47.81959047 Ry
     estimated scf accuracy    <       0.00000001 Ry

     iteration # 28     ecut=    60.00 Ry     beta= 0.70
     Davidson diagonalization with overlap
     ethr =  8.42E-11,  avg # of iterations =  5.1

     negative rho (up, down):  1.830E-04 0.000E+00

     total cpu time spent up to now is        9.6 secs

     End of self-consistent calculation

          k = 0.0000 0.0000 0.0000 (  5565 PWs)   bands (ev):

   -20.0476 -19.9402  -8.4830  -7.7004  -3.5352  -3.5352  -3.5294  -3.5294
     2.7795   3.1514   3.5622   4.8327

          k = 0.0000 0.1443 0.0000 (  5582 PWs)   bands (ev):

   -19.6779 -19.5730  -8.0372  -7.2667  -4.9185  -4.9026  -4.2408  -4.2295
     3.2817   3.6571   4.0690   5.3363

          k = 0.0000 0.2887 0.0000 (  5566 PWs)   bands (ev):

   -18.5781 -18.4808  -7.9288  -7.8951  -6.7272  -5.9986  -5.5512  -5.5356
     4.7840   5.1616   5.5883   6.6237

          k = 0.0000 0.4330 0.0000 (  5594 PWs)   bands (ev):

   -16.7858 -16.7007 -11.2132 -11.1615  -6.5591  -6.5416  -4.6951  -4.0733
     3.1333   3.5257   7.0275   7.1261

          k = 0.0000-0.5774 0.0000 (  5604 PWs)   bands (ev):

   -14.7680 -14.7286 -13.7374 -13.7074  -6.9216  -6.9036  -2.9846  -2.7063
     1.0835   1.3763   6.8663   7.0102

          k = 0.1250 0.2165 0.0000 (  5559 PWs)   bands (ev):

   -18.9432 -18.8433  -7.1579  -6.7168  -6.7025  -6.4139  -5.6434  -5.6332
     4.2855   4.6663   5.0835   6.3434

          k = 0.1250 0.3608 0.0000 (  5578 PWs)   bands (ev):

   -17.4962 -17.4062  -9.5140  -9.4763  -7.1664  -7.1438  -5.4648  -4.7869
     4.6054   4.8680   6.2805   6.6773

          k = 0.1250 0.5052 0.0000 (  5571 PWs)   bands (ev):

   -15.4209 -15.3469 -12.5211 -12.4657  -7.9354  -7.9083  -3.2797  -2.8002
     1.6102   1.9370   8.4236   8.5881

          k = 0.2500 0.4330 0.0000 (  5528 PWs)   bands (ev):

   -15.7505 -15.6727 -11.0208 -10.9947  -9.4578  -9.4384  -3.4950  -2.9233
     2.2332   2.4651   8.7278   9.0415

          k = 0.2500 0.5774 0.0000 (  5540 PWs)   bands (ev):

   -13.8203 -13.7846 -12.9390 -12.9232 -10.2483 -10.2131  -1.6429  -1.3758
     0.4748   0.5164  10.3631  10.4110

     the Fermi energy is    -0.2732 ev

     WARNING: integrated charge=    16.00000160, expected=    16.00000000

!    total energy              =     -47.81959048 Ry
     estimated scf accuracy    <          3.9E-10 Ry
     smearing contrib. (-TS)   =       0.00000002 Ry
     internal energy E=F+TS    =     -47.81959051 Ry

     The total energy is F=E-TS. E is the sum of the following terms:
     one-electron contribution =    -523.35823792 Ry
     hartree contribution      =     265.34431331 Ry
     xc contribution           =     -16.61170865 Ry
     ewald contribution        =     226.80604275 Ry

     convergence has been achieved in  28 iterations

     negative rho (up, down):  1.830E-04 0.000E+00

     Forces acting on atoms (cartesian axes, Ry/au):

     atom    1 type  1   force =     0.00000000    0.00000000   -0.00110531
     atom    2 type  1   force =     0.00000000    0.00000000   -0.00138726
     atom    3 type  1   force =     0.00000000    0.00000000    0.00110531
     atom    4 type  1   force =     0.00000000    0.00000000    0.00138726

     Total force =     0.002508     Total SCF correction =     0.000002


     Computing stress (Cartesian axis) and pressure


     negative rho (up, down):  1.830E-04 0.000E+00
          total   stress  (Ry/bohr**3)                   (kbar)     P=        0.54
  -0.00000420  -0.00000000   0.00000000           -0.62       -0.00        0.00
  -0.00000000  -0.00000420   0.00000000           -0.00       -0.62        0.00
  -0.00000000  -0.00000000   0.00001943           -0.00       -0.00        2.86


     BFGS Geometry Optimization
     Energy error            =      0.0E+00 Ry
     Gradient error          =      1.4E-03 Ry/Bohr
     Cell gradient error     =      6.2E-01 kbar

     number of scf cycles    =   1
     number of bfgs steps    =   0

     enthalpy           new  =     -47.8195904824 Ry

     new trust radius        =       0.0013872595 bohr
     new conv_thr            =       0.0000000010 Ry

     new unit-cell volume =    709.43762 a.u.^3 (   105.12781 Ang^3 )
     density =      0.75886 g/cm^3

CELL_PARAMETERS (alat=  4.65610675)
   0.999895079  -0.000000000   0.000000000
  -0.499947539   0.865934539   0.000000000
   0.000000000   0.000000000   8.117194158

ATOMIC_POSITIONS (crystal)
C             0.0000000000        0.0000000000        0.4124707548
C             0.3333333330        0.6666666660        0.4124632947
C             0.0000000000        0.0000000000        0.5875292452
C             0.6666666660        0.3333333330        0.5875367053



     Writing config-only to output data dir ../tmp/gr.save/
     NEW-OLD atomic charge density approx. for the potential

     Check: negative core charge=   -0.000004

     negative rho (up, down):  1.830E-04 0.000E+00
     extrapolated charge   15.99664, renormalised to   16.00000

     total cpu time spent up to now is       10.1 secs

     Self-consistent Calculation

     iteration #  1     ecut=    60.00 Ry     beta= 0.70
     Davidson diagonalization with overlap
     ethr =  1.00E-06,  avg # of iterations =  3.2

     negative rho (up, down):  1.835E-04 0.000E+00

     total cpu time spent up to now is       10.3 secs

     total energy              =     -47.81956187 Ry
     estimated scf accuracy    <       0.00001844 Ry

     iteration #  2     ecut=    60.00 Ry     beta= 0.70
     Davidson diagonalization with overlap
     ethr =  1.15E-07,  avg # of iterations =  5.0

     negative rho (up, down):  1.834E-04 0.000E+00

     total cpu time spent up to now is       10.6 secs

     total energy              =     -47.81959275 Ry
     estimated scf accuracy    <       0.00009737 Ry

     iteration #  3     ecut=    60.00 Ry     beta= 0.70
     Davidson diagonalization with overlap
     ethr =  1.15E-07,  avg # of iterations =  2.8

     negative rho (up, down):  1.835E-04 0.000E+00

     total cpu time spent up to now is       10.9 secs

     total energy              =     -47.81959522 Ry
     estimated scf accuracy    <       0.00001917 Ry

     iteration #  4     ecut=    60.00 Ry     beta= 0.70
     Davidson diagonalization with overlap
     ethr =  1.15E-07,  avg # of iterations =  1.7

     negative rho (up, down):  1.835E-04 0.000E+00

     total cpu time spent up to now is       11.0 secs

     total energy              =     -47.81959439 Ry
     estimated scf accuracy    <       0.00000646 Ry

     iteration #  5     ecut=    60.00 Ry     beta= 0.70
     Davidson diagonalization with overlap
     ethr =  4.04E-08,  avg # of iterations =  4.2

     negative rho (up, down):  1.836E-04 0.000E+00

     total cpu time spent up to now is       11.3 secs

     total energy              =     -47.81959603 Ry
     estimated scf accuracy    <       0.00000046 Ry

     iteration #  6     ecut=    60.00 Ry     beta= 0.70
     Davidson diagonalization with overlap
     ethr =  2.89E-09,  avg # of iterations =  6.0

     negative rho (up, down):  1.836E-04 0.000E+00

     total cpu time spent up to now is       11.6 secs

     total energy              =     -47.81959710 Ry
     estimated scf accuracy    <       0.00000009 Ry

     iteration #  7     ecut=    60.00 Ry     beta= 0.70
     Davidson diagonalization with overlap
     ethr =  5.52E-10,  avg # of iterations =  4.8

     negative rho (up, down):  1.836E-04 0.000E+00

     total cpu time spent up to now is       11.8 secs

     total energy              =     -47.81959716 Ry
     estimated scf accuracy    <       0.00000008 Ry

     iteration #  8     ecut=    60.00 Ry     beta= 0.70
     Davidson diagonalization with overlap
     ethr =  5.31E-10,  avg # of iterations =  1.1

     negative rho (up, down):  1.831E-04 0.000E+00

     total cpu time spent up to now is       12.0 secs

     total energy              =     -47.81959711 Ry
     estimated scf accuracy    <       0.00000011 Ry

     iteration #  9     ecut=    60.00 Ry     beta= 0.70
     Davidson diagonalization with overlap
     ethr =  5.31E-10,  avg # of iterations =  5.7

     negative rho (up, down):  1.833E-04 0.000E+00

     total cpu time spent up to now is       12.3 secs

     total energy              =     -47.81959683 Ry
     estimated scf accuracy    <       0.00000163 Ry

     iteration # 10     ecut=    60.00 Ry     beta= 0.70
     Davidson diagonalization with overlap
     ethr =  5.31E-10,  avg # of iterations =  4.2

     negative rho (up, down):  1.832E-04 0.000E+00

     total cpu time spent up to now is       12.6 secs

     total energy              =     -47.81959716 Ry
     estimated scf accuracy    <          5.6E-09 Ry

     iteration # 11     ecut=    60.00 Ry     beta= 0.70
     Davidson diagonalization with overlap
     ethr =  3.49E-11,  avg # of iterations =  5.3

     negative rho (up, down):  1.833E-04 0.000E+00

     total cpu time spent up to now is       12.9 secs

     total energy              =     -47.81959712 Ry
     estimated scf accuracy    <       0.00000022 Ry

     iteration # 12     ecut=    60.00 Ry     beta= 0.70
     Davidson diagonalization with overlap
     ethr =  3.49E-11,  avg # of iterations =  4.4

     negative rho (up, down):  1.833E-04 0.000E+00

     total cpu time spent up to now is       13.2 secs

     total energy              =     -47.81959714 Ry
     estimated scf accuracy    <       0.00000002 Ry

     iteration # 13     ecut=    60.00 Ry     beta= 0.70
     Davidson diagonalization with overlap
     ethr =  3.49E-11,  avg # of iterations =  1.4

     negative rho (up, down):  1.833E-04 0.000E+00

     total cpu time spent up to now is       13.3 secs

     total energy              =     -47.81959713 Ry
     estimated scf accuracy    <       0.00000002 Ry

     iteration # 14     ecut=    60.00 Ry     beta= 0.70
     Davidson diagonalization with overlap
     ethr =  3.49E-11,  avg # of iterations =  3.0

     negative rho (up, down):  1.833E-04 0.000E+00

     total cpu time spent up to now is       13.6 secs

     total energy              =     -47.81959713 Ry
     estimated scf accuracy    <          4.9E-09 Ry

     iteration # 15     ecut=    60.00 Ry     beta= 0.70
     Davidson diagonalization with overlap
     ethr =  3.05E-11,  avg # of iterations =  3.4

     negative rho (up, down):  1.833E-04 0.000E+00

     total cpu time spent up to now is       13.8 secs

     End of self-consistent calculation

          k = 0.0000 0.0000 0.0000 (  5565 PWs)   bands (ev):

   -20.0487 -19.9416  -8.4830  -7.7021  -3.5338  -3.5338  -3.5281  -3.5281
     2.7795   3.1516   3.5621   4.8322

          k = 0.0000 0.1444 0.0000 (  5582 PWs)   bands (ev):

   -19.6789 -19.5744  -8.0371  -7.2682  -4.9173  -4.9015  -4.2397  -4.2285
     3.2819   3.6574   4.0690   5.3364

          k = 0.0000 0.2887 0.0000 (  5566 PWs)   bands (ev):

   -18.5789 -18.4819  -7.9280  -7.8945  -6.7268  -5.9998  -5.5504  -5.5349
     4.7844   5.1623   5.5886   6.6289

          k = 0.0000 0.4331 0.0000 (  5594 PWs)   bands (ev):

   -16.7862 -16.7014 -11.2129 -11.1615  -6.5586  -6.5412  -4.6942  -4.0737
     3.1360   3.5274   7.0314   7.1295

          k =-0.0000-0.5774 0.0000 (  5604 PWs)   bands (ev):

   -14.7677 -14.7284 -13.7381 -13.7082  -6.9212  -6.9032  -2.9835  -2.7058
     1.0853   1.3774   6.8709   7.0144

          k = 0.1250 0.2165 0.0000 (  5559 PWs)   bands (ev):

   -18.9440 -18.8445  -7.1576  -6.7158  -6.7015  -6.4151  -5.6426  -5.6325
     4.2858   4.6668   5.0836   6.3435

          k = 0.1250 0.3609 0.0000 (  5578 PWs)   bands (ev):

   -17.4968 -17.4071  -9.5134  -9.4758  -7.1660  -7.1435  -5.4641  -4.7877
     4.6085   4.8704   6.2813   6.6776

          k = 0.1250 0.5052 0.0000 (  5571 PWs)   bands (ev):

   -15.4211 -15.3473 -12.5211 -12.4659  -7.9352  -7.9081  -3.2786  -2.8000
     1.6123   1.9384   8.4282   8.5920

          k = 0.2500 0.4331 0.0000 (  5528 PWs)   bands (ev):

   -15.7507 -15.6732 -11.0202 -10.9942  -9.4581  -9.4388  -3.4939  -2.9234
     2.2356   2.4670   8.7291   9.0430

          k = 0.2500 0.5774 0.0000 (  5540 PWs)   bands (ev):

   -13.8199 -13.7844 -12.9391 -12.9234 -10.2487 -10.2136  -1.6415  -1.3749
     0.4763   0.5179  10.3654  10.4125

     the Fermi energy is    -0.2720 ev

!    total energy              =     -47.81959713 Ry
     estimated scf accuracy    <          3.0E-10 Ry
     smearing contrib. (-TS)   =       0.00000002 Ry
     internal energy E=F+TS    =     -47.81959716 Ry

     The total energy is F=E-TS. E is the sum of the following terms:
     one-electron contribution =    -523.33075016 Ry
     hartree contribution      =     265.33125016 Ry
     xc contribution           =     -16.61263741 Ry
     ewald contribution        =     226.79254026 Ry

     convergence has been achieved in  15 iterations

     negative rho (up, down):  1.833E-04 0.000E+00

     Forces acting on atoms (cartesian axes, Ry/au):

     atom    1 type  1   force =    -0.00000000   -0.00000000   -0.00123093
     atom    2 type  1   force =     0.00000000    0.00000000   -0.00131337
     atom    3 type  1   force =     0.00000000    0.00000000    0.00123093
     atom    4 type  1   force =     0.00000000    0.00000000    0.00131337

     Total force =     0.002546     Total SCF correction =     0.000069


     Computing stress (Cartesian axis) and pressure


     negative rho (up, down):  1.833E-04 0.000E+00
          total   stress  (Ry/bohr**3)                   (kbar)     P=        0.83
  -0.00000120  -0.00000000   0.00000000           -0.18       -0.00        0.00
   0.00000000  -0.00000120   0.00000000            0.00       -0.18        0.00
   0.00000000   0.00000000   0.00001938            0.00        0.00        2.85

     Energy error            =      6.6E-06 Ry
     Gradient error          =      1.3E-03 Ry/Bohr
     Cell gradient error     =      1.8E-01 kbar

     number of scf cycles    =   2
     number of bfgs steps    =   1

     enthalpy           old  =     -47.8195904824 Ry
     enthalpy           new  =     -47.8195971315 Ry

     CASE: enthalpy          _new < enthalpy          _old


     WARNING: bfgs curvature condition failed, Theta= 0.846
     new trust radius        =       0.0015259854 bohr
     new conv_thr            =            1.0E-11 Ry

     new unit-cell volume =    709.32058 a.u.^3 (   105.11047 Ang^3 )
     density =      0.75898 g/cm^3

CELL_PARAMETERS (alat=  4.65610675)
   0.999812598  -0.000000000   0.000000000
  -0.499906299   0.865863109   0.000000000
   0.000000000   0.000000000   8.117194158

ATOMIC_POSITIONS (crystal)
C            -0.0000000000       -0.0000000000        0.4124362679
C             0.3333333330        0.6666666660        0.4124229189
C             0.0000000000        0.0000000000        0.5875637321
C             0.6666666660        0.3333333330        0.5875770811



     Writing config-only to output data dir ../tmp/gr.save/
     NEW-OLD atomic charge density approx. for the potential

     Check: negative core charge=   -0.000004

     negative rho (up, down):  1.832E-04 0.000E+00
     extrapolated charge   15.99736, renormalised to   16.00000

     total cpu time spent up to now is       14.3 secs

     Self-consistent Calculation

     iteration #  1     ecut=    60.00 Ry     beta= 0.70
     Davidson diagonalization with overlap
     ethr =  1.00E-06,  avg # of iterations =  2.2

     Threshold (ethr) on eigenvalues was too large:
     Diagonalizing with lowered threshold

     Davidson diagonalization with overlap
     ethr =  9.55E-08,  avg # of iterations =  4.0

     negative rho (up, down):  1.838E-04 0.000E+00

     total cpu time spent up to now is       14.8 secs

     total energy              =     -47.81959590 Ry
     estimated scf accuracy    <       0.00000489 Ry

     iteration #  2     ecut=    60.00 Ry     beta= 0.70
     Davidson diagonalization with overlap
     ethr =  3.06E-08,  avg # of iterations =  5.1

     negative rho (up, down):  1.837E-04 0.000E+00

     total cpu time spent up to now is       15.1 secs

     total energy              =     -47.81960309 Ry
     estimated scf accuracy    <       0.00002188 Ry

     iteration #  3     ecut=    60.00 Ry     beta= 0.70
     Davidson diagonalization with overlap
     ethr =  3.06E-08,  avg # of iterations =  2.4

     negative rho (up, down):  1.838E-04 0.000E+00

     total cpu time spent up to now is       15.3 secs

     total energy              =     -47.81960236 Ry
     estimated scf accuracy    <       0.00000477 Ry

     iteration #  4     ecut=    60.00 Ry     beta= 0.70
     Davidson diagonalization with overlap
     ethr =  2.98E-08,  avg # of iterations =  3.2

     negative rho (up, down):  1.838E-04 0.000E+00

     total cpu time spent up to now is       15.5 secs

     total energy              =     -47.81960371 Ry
     estimated scf accuracy    <       0.00000003 Ry

     iteration #  5     ecut=    60.00 Ry     beta= 0.70
     Davidson diagonalization with overlap
     ethr =  1.82E-10,  avg # of iterations = 14.1

     negative rho (up, down):  1.837E-04 0.000E+00

     total cpu time spent up to now is       16.2 secs

     total energy              =     -47.81960412 Ry
     estimated scf accuracy    <       0.00000016 Ry

     iteration #  6     ecut=    60.00 Ry     beta= 0.70
     Davidson diagonalization with overlap
     ethr =  1.82E-10,  avg # of iterations =  2.6

     negative rho (up, down):  1.835E-04 0.000E+00

     total cpu time spent up to now is       16.4 secs

     total energy              =     -47.81960410 Ry
     estimated scf accuracy    <       0.00000004 Ry

     iteration #  7     ecut=    60.00 Ry     beta= 0.70
     Davidson diagonalization with overlap
     ethr =  1.82E-10,  avg # of iterations =  4.6

     negative rho (up, down):  1.836E-04 0.000E+00

     total cpu time spent up to now is       16.7 secs

     total energy              =     -47.81960409 Ry
     estimated scf accuracy    <       0.00000017 Ry

     iteration #  8     ecut=    60.00 Ry     beta= 0.70
     Davidson diagonalization with overlap
     ethr =  1.82E-10,  avg # of iterations =  4.0

     negative rho (up, down):  1.836E-04 0.000E+00

     total cpu time spent up to now is       16.9 secs

     total energy              =     -47.81960413 Ry
     estimated scf accuracy    <          9.3E-11 Ry

     iteration #  9     ecut=    60.00 Ry     beta= 0.70
     Davidson diagonalization with overlap
     ethr =  5.84E-13,  avg # of iterations = 13.4

     negative rho (up, down):  1.836E-04 0.000E+00

     total cpu time spent up to now is       17.5 secs

     total energy              =     -47.81960413 Ry
     estimated scf accuracy    <          3.0E-09 Ry

     iteration # 10     ecut=    60.00 Ry     beta= 0.70
     Davidson diagonalization with overlap
     ethr =  5.84E-13,  avg # of iterations =  5.6

     negative rho (up, down):  1.836E-04 0.000E+00

     total cpu time spent up to now is       17.8 secs

     End of self-consistent calculation

          k = 0.0000 0.0000 0.0000 (  5565 PWs)   bands (ev):

   -20.0493 -19.9426  -8.4826  -7.7035  -3.5325  -3.5325  -3.5268  -3.5268
     2.7795   3.1517   3.5622   4.8325

          k = 0.0000 0.1444 0.0000 (  5582 PWs)   bands (ev):

   -19.6795 -19.5753  -8.0366  -7.2696  -4.9161  -4.9004  -4.2386  -4.2274
     3.2819   3.6576   4.0692   5.3368

          k = 0.0000 0.2887 0.0000 (  5566 PWs)   bands (ev):

   -18.5793 -18.4827  -7.9272  -7.8938  -6.7261  -6.0008  -5.5496  -5.5341
     4.7847   5.1628   5.5889   6.6306

          k = 0.0000 0.4331 0.0000 (  5594 PWs)   bands (ev):

   -16.7864 -16.7019 -11.2126 -11.1613  -6.5580  -6.5406  -4.6932  -4.0742
     3.1384   3.5288   7.0347   7.1322

          k =-0.0000-0.5775 0.0000 (  5604 PWs)   bands (ev):

   -14.7673 -14.7282 -13.7385 -13.7087  -6.9207  -6.9028  -2.9824  -2.7053
     1.0869   1.3782   6.8747   7.0178

          k = 0.1250 0.2165 0.0000 (  5559 PWs)   bands (ev):

   -18.9445 -18.8454  -7.1570  -6.7148  -6.7006  -6.4163  -5.6419  -5.6318
     4.2861   4.6672   5.0840   6.3440

          k = 0.1250 0.3609 0.0000 (  5578 PWs)   bands (ev):

   -17.4971 -17.4077  -9.5127  -9.4753  -7.1655  -7.1431  -5.4632  -4.7884
     4.6112   4.8724   6.2818   6.6782

          k = 0.1250 0.5053 0.0000 (  5571 PWs)   bands (ev):

   -15.4210 -15.3475 -12.5209 -12.4659  -7.9348  -7.9079  -3.2774  -2.8000
     1.6142   1.9395   8.4322   8.5954

          k = 0.2500 0.4331 0.0000 (  5528 PWs)   bands (ev):

   -15.7507 -15.6735 -11.0195 -10.9936  -9.4582  -9.4389  -3.4926  -2.9235
     2.2377   2.4685   8.7300   9.0443

          k = 0.2500 0.5775 0.0000 (  5540 PWs)   bands (ev):

   -13.8195 -13.7841 -12.9391 -12.9234 -10.2488 -10.2139  -1.6401  -1.3742
     0.4777   0.5191  10.3674  10.4137

     the Fermi energy is    -0.2710 ev

!    total energy              =     -47.81960413 Ry
     estimated scf accuracy    <          3.6E-12 Ry
     smearing contrib. (-TS)   =       0.00000002 Ry
     internal energy E=F+TS    =     -47.81960415 Ry

     The total energy is F=E-TS. E is the sum of the following terms:
     one-electron contribution =    -523.26096258 Ry
     hartree contribution      =     265.29700645 Ry
     xc contribution           =     -16.61335444 Ry
     ewald contribution        =     226.75770641 Ry

     convergence has been achieved in  10 iterations

     negative rho (up, down):  1.836E-04 0.000E+00

     Forces acting on atoms (cartesian axes, Ry/au):

     atom    1 type  1   force =     0.00000000    0.00000000   -0.00126805
     atom    2 type  1   force =     0.00000000    0.00000000   -0.00119468
     atom    3 type  1   force =     0.00000000    0.00000000    0.00126805
     atom    4 type  1   force =     0.00000000    0.00000000    0.00119468

     Total force =     0.002464     Total SCF correction =     0.000000


     Computing stress (Cartesian axis) and pressure


     negative rho (up, down):  1.836E-04 0.000E+00
          total   stress  (Ry/bohr**3)                   (kbar)     P=        1.06
   0.00000117   0.00000000   0.00000000            0.17        0.00        0.00
   0.00000000   0.00000117   0.00000000            0.00        0.17        0.00
   0.00000000   0.00000000   0.00001926            0.00        0.00        2.83

     Energy error            =      7.0E-06 Ry
     Gradient error          =      1.3E-03 Ry/Bohr
     Cell gradient error     =      1.7E-01 kbar

     number of scf cycles    =   3
     number of bfgs steps    =   2

     enthalpy           old  =     -47.8195971315 Ry
     enthalpy           new  =     -47.8196041289 Ry

     CASE: enthalpy          _new < enthalpy          _old

     new trust radius        =       0.0022889781 bohr
     new conv_thr            =            1.0E-11 Ry

     new unit-cell volume =    709.21357 a.u.^3 (   105.09461 Ang^3 )
     density =      0.75910 g/cm^3

CELL_PARAMETERS (alat=  4.65610675)
   0.999737177   0.000000000   0.000000000
  -0.499868589   0.865797793   0.000000000
   0.000000000   0.000000000   8.117194158

ATOMIC_POSITIONS (crystal)
C             0.0000000000        0.0000000000        0.4123812099
C             0.3333333330        0.6666666660        0.4123623551
C             0.0000000000        0.0000000000        0.5876187901
C             0.6666666660        0.3333333330        0.5876376449



     Writing config-only to output data dir ../tmp/gr.save/
     NEW-OLD atomic charge density approx. for the potential

     Check: negative core charge=   -0.000004

     negative rho (up, down):  1.832E-04 0.000E+00
     extrapolated charge   15.99759, renormalised to   16.00000

     total cpu time spent up to now is       18.4 secs

     Self-consistent Calculation

     iteration #  1     ecut=    60.00 Ry     beta= 0.70
     Davidson diagonalization with overlap
     ethr =  1.00E-06,  avg # of iterations =  4.7

     Threshold (ethr) on eigenvalues was too large:
     Diagonalizing with lowered threshold

     Davidson diagonalization with overlap
     ethr =  4.12E-08,  avg # of iterations =  4.0

     negative rho (up, down):  1.842E-04 0.000E+00

     total cpu time spent up to now is       18.9 secs

     total energy              =     -47.81961051 Ry
     estimated scf accuracy    <       0.00000344 Ry

     iteration #  2     ecut=    60.00 Ry     beta= 0.70
     Davidson diagonalization with overlap
     ethr =  2.15E-08,  avg # of iterations =  4.8

     negative rho (up, down):  1.841E-04 0.000E+00

     total cpu time spent up to now is       19.2 secs

     total energy              =     -47.81961400 Ry
     estimated scf accuracy    <       0.00000963 Ry

     iteration #  3     ecut=    60.00 Ry     beta= 0.70
     Davidson diagonalization with overlap
     ethr =  2.15E-08,  avg # of iterations =  2.0

     negative rho (up, down):  1.842E-04 0.000E+00

     total cpu time spent up to now is       19.4 secs

     total energy              =     -47.81961369 Ry
     estimated scf accuracy    <       0.00000204 Ry

     iteration #  4     ecut=    60.00 Ry     beta= 0.70
     Davidson diagonalization with overlap
     ethr =  1.27E-08,  avg # of iterations =  4.0

     negative rho (up, down):  1.841E-04 0.000E+00

     total cpu time spent up to now is       19.6 secs

     total energy              =     -47.81961443 Ry
     estimated scf accuracy    <       0.00000004 Ry

     iteration #  5     ecut=    60.00 Ry     beta= 0.70
     Davidson diagonalization with overlap
     ethr =  2.80E-10,  avg # of iterations =  7.8

     negative rho (up, down):  1.841E-04 0.000E+00

     total cpu time spent up to now is       20.0 secs

     total energy              =     -47.81961458 Ry
     estimated scf accuracy    <       0.00000001 Ry

     iteration #  6     ecut=    60.00 Ry     beta= 0.70
     Davidson diagonalization with overlap
     ethr =  6.42E-11,  avg # of iterations =  4.1

     negative rho (up, down):  1.841E-04 0.000E+00

     total cpu time spent up to now is       20.3 secs

     total energy              =     -47.81961458 Ry
     estimated scf accuracy    <          2.4E-09 Ry

     iteration #  7     ecut=    60.00 Ry     beta= 0.70
     Davidson diagonalization with overlap
     ethr =  1.52E-11,  avg # of iterations =  4.4

     negative rho (up, down):  1.841E-04 0.000E+00

     total cpu time spent up to now is       20.6 secs

     total energy              =     -47.81961458 Ry
     estimated scf accuracy    <          6.5E-09 Ry

     iteration #  8     ecut=    60.00 Ry     beta= 0.70
     Davidson diagonalization with overlap
     ethr =  1.52E-11,  avg # of iterations =  3.2

     negative rho (up, down):  1.841E-04 0.000E+00

     total cpu time spent up to now is       20.8 secs

     total energy              =     -47.81961458 Ry
     estimated scf accuracy    <          5.1E-10 Ry

     iteration #  9     ecut=    60.00 Ry     beta= 0.70
     Davidson diagonalization with overlap
     ethr =  3.18E-12,  avg # of iterations =  4.8

     negative rho (up, down):  1.841E-04 0.000E+00

     total cpu time spent up to now is       21.1 secs

     total energy              =     -47.81961458 Ry
     estimated scf accuracy    <          6.4E-10 Ry

     iteration # 10     ecut=    60.00 Ry     beta= 0.70
     Davidson diagonalization with overlap
     ethr =  3.18E-12,  avg # of iterations =  1.6

     negative rho (up, down):  1.841E-04 0.000E+00

     total cpu time spent up to now is       21.2 secs

     total energy              =     -47.81961458 Ry
     estimated scf accuracy    <          7.3E-11 Ry

     iteration # 11     ecut=    60.00 Ry     beta= 0.70
     Davidson diagonalization with overlap
     ethr =  4.54E-13,  avg # of iterations =  5.0

     negative rho (up, down):  1.841E-04 0.000E+00

     total cpu time spent up to now is       21.5 secs

     total energy              =     -47.81961458 Ry
     estimated scf accuracy    <          3.3E-11 Ry

     iteration # 12     ecut=    60.00 Ry     beta= 0.70
     Davidson diagonalization with overlap
     ethr =  2.04E-13,  avg # of iterations =  2.7

     negative rho (up, down):  1.841E-04 0.000E+00

     total cpu time spent up to now is       21.7 secs

     total energy              =     -47.81961458 Ry
     estimated scf accuracy    <          4.3E-11 Ry

     iteration # 13     ecut=    60.00 Ry     beta= 0.70
     Davidson diagonalization with overlap
     ethr =  2.04E-13,  avg # of iterations =  1.1

     negative rho (up, down):  1.841E-04 0.000E+00

     total cpu time spent up to now is       21.9 secs

     total energy              =     -47.81961458 Ry
     estimated scf accuracy    <          1.5E-11 Ry

     iteration # 14     ecut=    60.00 Ry     beta= 0.70
     Davidson diagonalization with overlap
     ethr =  1.00E-13,  avg # of iterations =  2.6

     negative rho (up, down):  1.841E-04 0.000E+00

     total cpu time spent up to now is       22.1 secs

     End of self-consistent calculation

          k = 0.0000 0.0000 0.0000 (  5565 PWs)   bands (ev):

   -20.0498 -19.9437  -8.4817  -7.7054  -3.5314  -3.5314  -3.5257  -3.5257
     2.7793   3.1517   3.5622   4.8329

          k =-0.0000 0.1444 0.0000 (  5582 PWs)   bands (ev):

   -19.6799 -19.5763  -8.0356  -7.2714  -4.9151  -4.8995  -4.2376  -4.2265
     3.2818   3.6577   4.0693   5.3373

          k =-0.0000 0.2888 0.0000 (  5566 PWs)   bands (ev):

   -18.5796 -18.4835  -7.9264  -7.8932  -6.7249  -6.0023  -5.5489  -5.5335
     4.7848   5.1631   5.5892   6.6329

          k =-0.0000 0.4331 0.0000 (  5594 PWs)   bands (ev):

   -16.7865 -16.7024 -11.2122 -11.1612  -6.5575  -6.5402  -4.6918  -4.0751
     3.1409   3.5297   7.0378   7.1346

          k = 0.0000-0.5775 0.0000 (  5604 PWs)   bands (ev):

   -14.7669 -14.7280 -13.7388 -13.7091  -6.9202  -6.9025  -2.9811  -2.7051
     1.0884   1.3788   6.8784   7.0207

          k = 0.1250 0.2166 0.0000 (  5559 PWs)   bands (ev):

   -18.9448 -18.8462  -7.1559  -6.7139  -6.6997  -6.4179  -5.6412  -5.6312
     4.2861   4.6674   5.0842   6.3446

          k = 0.1250 0.3609 0.0000 (  5578 PWs)   bands (ev):

   -17.4972 -17.4083  -9.5121  -9.4749  -7.1650  -7.1427  -5.4618  -4.7895
     4.6139   4.8740   6.2821   6.6787

          k = 0.1250 0.5053 0.0000 (  5571 PWs)   bands (ev):

   -15.4209 -15.3478 -12.5207 -12.4661  -7.9344  -7.9076  -3.2759  -2.8003
     1.6162   1.9403   8.4360   8.5983

          k = 0.2501 0.4331 0.0000 (  5528 PWs)   bands (ev):

   -15.7507 -15.6739 -11.0189 -10.9932  -9.4582  -9.4391  -3.4911  -2.9241
     2.2399   2.4698   8.7306   9.0454

          k = 0.2501 0.5775 0.0000 (  5540 PWs)   bands (ev):

   -13.8190 -13.7839 -12.9390 -12.9234 -10.2488 -10.2141  -1.6385  -1.3737
     0.4790   0.5201  10.3695  10.4146

     the Fermi energy is    -0.2701 ev

!    total energy              =     -47.81961458 Ry
     estimated scf accuracy    <          1.3E-12 Ry
     smearing contrib. (-TS)   =       0.00000002 Ry
     internal energy E=F+TS    =     -47.81961461 Ry

     The total energy is F=E-TS. E is the sum of the following terms:
     one-electron contribution =    -523.09781525 Ry
     hartree contribution      =     265.21596870 Ry
     xc contribution           =     -16.61400072 Ry
     ewald contribution        =     226.67623267 Ry

     convergence has been achieved in  14 iterations

     negative rho (up, down):  1.841E-04 0.000E+00

     Forces acting on atoms (cartesian axes, Ry/au):

     atom    1 type  1   force =    -0.00000000    0.00000000   -0.00133364
     atom    2 type  1   force =     0.00000000    0.00000000   -0.00111348
     atom    3 type  1   force =    -0.00000000   -0.00000000    0.00133364
     atom    4 type  1   force =    -0.00000000   -0.00000000    0.00111348

     Total force =     0.002457     Total SCF correction =     0.000005


     Computing stress (Cartesian axis) and pressure


     negative rho (up, down):  1.841E-04 0.000E+00
          total   stress  (Ry/bohr**3)                   (kbar)     P=        1.26
   0.00000333   0.00000000   0.00000000            0.49        0.00        0.00
   0.00000000   0.00000333   0.00000000            0.00        0.49        0.00
   0.00000000   0.00000000   0.00001907            0.00        0.00        2.80

     Energy error            =      1.0E-05 Ry
     Gradient error          =      1.3E-03 Ry/Bohr
     Cell gradient error     =      4.9E-01 kbar

     number of scf cycles    =   4
     number of bfgs steps    =   3

     enthalpy           old  =     -47.8196041289 Ry
     enthalpy           new  =     -47.8196145835 Ry

     CASE: enthalpy          _new < enthalpy          _old

     new trust radius        =       0.0034334672 bohr
     new conv_thr            =            1.0E-11 Ry

     new unit-cell volume =    709.10133 a.u.^3 (   105.07798 Ang^3 )
     density =      0.75922 g/cm^3

CELL_PARAMETERS (alat=  4.65610675)
   0.999658068   0.000000000   0.000000000
  -0.499829034   0.865729282   0.000000000
   0.000000000   0.000000000   8.117194158

ATOMIC_POSITIONS (crystal)
C            -0.0000000000        0.0000000000        0.4122961200
C             0.3333333330        0.6666666660        0.4122715095
C            -0.0000000000       -0.0000000000        0.5877038800
C             0.6666666660        0.3333333330        0.5877284905



     Writing config-only to output data dir ../tmp/gr.save/
     NEW-OLD atomic charge density approx. for the potential

     Check: negative core charge=   -0.000004

     negative rho (up, down):  1.834E-04 0.000E+00
     extrapolated charge   15.99747, renormalised to   16.00000

     total cpu time spent up to now is       22.6 secs

     Self-consistent Calculation

     iteration #  1     ecut=    60.00 Ry     beta= 0.70
     Davidson diagonalization with overlap
     ethr =  1.00E-06,  avg # of iterations =  5.4

     Threshold (ethr) on eigenvalues was too large:
     Diagonalizing with lowered threshold

     Davidson diagonalization with overlap
     ethr =  3.64E-08,  avg # of iterations =  3.8

     negative rho (up, down):  1.847E-04 0.000E+00

     total cpu time spent up to now is       23.2 secs

     total energy              =     -47.81962700 Ry
     estimated scf accuracy    <       0.00000527 Ry

     iteration #  2     ecut=    60.00 Ry     beta= 0.70
     Davidson diagonalization with overlap
     ethr =  3.29E-08,  avg # of iterations =  4.0

     negative rho (up, down):  1.846E-04 0.000E+00

     total cpu time spent up to now is       23.4 secs

     total energy              =     -47.81962904 Ry
     estimated scf accuracy    <       0.00000470 Ry

     iteration #  3     ecut=    60.00 Ry     beta= 0.70
     Davidson diagonalization with overlap
     ethr =  2.94E-08,  avg # of iterations =  2.0

     negative rho (up, down):  1.848E-04 0.000E+00

     total cpu time spent up to now is       23.6 secs

     total energy              =     -47.81962977 Ry
     estimated scf accuracy    <       0.00000026 Ry

     iteration #  4     ecut=    60.00 Ry     beta= 0.70
     Davidson diagonalization with overlap
     ethr =  1.63E-09,  avg # of iterations =  5.5

     negative rho (up, down):  1.847E-04 0.000E+00

     total cpu time spent up to now is       23.9 secs

     total energy              =     -47.81963009 Ry
     estimated scf accuracy    <       0.00000010 Ry

     iteration #  5     ecut=    60.00 Ry     beta= 0.70
     Davidson diagonalization with overlap
     ethr =  6.29E-10,  avg # of iterations =  4.3

     negative rho (up, down):  1.848E-04 0.000E+00

     total cpu time spent up to now is       24.2 secs

     total energy              =     -47.81963008 Ry
     estimated scf accuracy    <       0.00000024 Ry

     iteration #  6     ecut=    60.00 Ry     beta= 0.70
     Davidson diagonalization with overlap
     ethr =  6.29E-10,  avg # of iterations =  3.9

     negative rho (up, down):  1.847E-04 0.000E+00

     total cpu time spent up to now is       24.4 secs

     total energy              =     -47.81963015 Ry
     estimated scf accuracy    <          7.2E-09 Ry

     iteration #  7     ecut=    60.00 Ry     beta= 0.70
     Davidson diagonalization with overlap
     ethr =  4.50E-11,  avg # of iterations =  4.1

     negative rho (up, down):  1.847E-04 0.000E+00

     total cpu time spent up to now is       24.7 secs

     total energy              =     -47.81963015 Ry
     estimated scf accuracy    <          7.3E-10 Ry

     iteration #  8     ecut=    60.00 Ry     beta= 0.70
     Davidson diagonalization with overlap
     ethr =  4.55E-12,  avg # of iterations =  6.1

     negative rho (up, down):  1.847E-04 0.000E+00

     total cpu time spent up to now is       25.0 secs

     total energy              =     -47.81963015 Ry
     estimated scf accuracy    <          1.0E-09 Ry

     iteration #  9     ecut=    60.00 Ry     beta= 0.70
     Davidson diagonalization with overlap
     ethr =  4.55E-12,  avg # of iterations =  1.2

     negative rho (up, down):  1.847E-04 0.000E+00

     total cpu time spent up to now is       25.2 secs

     total energy              =     -47.81963015 Ry
     estimated scf accuracy    <          2.8E-10 Ry

     iteration # 10     ecut=    60.00 Ry     beta= 0.70
     Davidson diagonalization with overlap
     ethr =  1.74E-12,  avg # of iterations =  4.1

     negative rho (up, down):  1.847E-04 0.000E+00

     total cpu time spent up to now is       25.4 secs

     total energy              =     -47.81963015 Ry
     estimated scf accuracy    <          5.3E-11 Ry

     iteration # 11     ecut=    60.00 Ry     beta= 0.70
     Davidson diagonalization with overlap
     ethr =  3.30E-13,  avg # of iterations =  4.2

     negative rho (up, down):  1.847E-04 0.000E+00

     total cpu time spent up to now is       25.7 secs

     total energy              =     -47.81963015 Ry
     estimated scf accuracy    <          2.1E-11 Ry

     iteration # 12     ecut=    60.00 Ry     beta= 0.70
     Davidson diagonalization with overlap
     ethr =  1.31E-13,  avg # of iterations =  2.8

     negative rho (up, down):  1.847E-04 0.000E+00

     total cpu time spent up to now is       25.9 secs

     End of self-consistent calculation

          k = 0.0000 0.0000 0.0000 (  5565 PWs)   bands (ev):

   -20.0501 -19.9448  -8.4802  -7.7080  -3.5301  -3.5301  -3.5245  -3.5245
     2.7789   3.1516   3.5619   4.8327

          k =-0.0000 0.1444 0.0000 (  5582 PWs)   bands (ev):

   -19.6801 -19.5774  -8.0340  -7.2739  -4.9139  -4.8985  -4.2365  -4.2255
     3.2815   3.6577   4.0690   5.3372

          k =-0.0000 0.2888 0.0000 (  5566 PWs)   bands (ev):

   -18.5798 -18.4844  -7.9255  -7.8926  -6.7231  -6.0044  -5.5480  -5.5328
     4.7846   5.1634   5.5891   6.6358

          k =-0.0000 0.4332 0.0000 (  5594 PWs)   bands (ev):

   -16.7864 -16.7030 -11.2116 -11.1611  -6.5568  -6.5398  -4.6897  -4.0765
     3.1439   3.5303   7.0411   7.1371

          k = 0.0000-0.5775 0.0000 (  5604 PWs)   bands (ev):

   -14.7664 -14.7279 -13.7391 -13.7097  -6.9196  -6.9021  -2.9794  -2.7050
     1.0902   1.3791   6.8825   7.0237

          k = 0.1250 0.2166 0.0000 (  5559 PWs)   bands (ev):

   -18.9450 -18.8472  -7.1541  -6.7128  -6.6989  -6.4201  -5.6404  -5.6305
     4.2858   4.6675   5.0840   6.3447

          k = 0.1250 0.3610 0.0000 (  5578 PWs)   bands (ev):

   -17.4972 -17.4091  -9.5113  -9.4745  -7.1645  -7.1424  -5.4599  -4.7912
     4.6171   4.8755   6.2821   6.6792

          k = 0.1250 0.5054 0.0000 (  5571 PWs)   bands (ev):

   -15.4206 -15.3481 -12.5204 -12.4662  -7.9339  -7.9074  -3.2738  -2.8009
     1.6186   1.9408   8.4402   8.6014

          k = 0.2501 0.4332 0.0000 (  5528 PWs)   bands (ev):

   -15.7504 -15.6743 -11.0182 -10.9927  -9.4582  -9.4393  -3.4889  -2.9251
     2.2424   2.4709   8.7310   9.0466

          k = 0.2501 0.5775 0.0000 (  5540 PWs)   bands (ev):

   -13.8185 -13.7836 -12.9389 -12.9234 -10.2488 -10.2144  -1.6365  -1.3732
     0.4804   0.5211  10.3718  10.4152

     the Fermi energy is    -0.2692 ev

!    total energy              =     -47.81963015 Ry
     estimated scf accuracy    <          6.5E-12 Ry
     smearing contrib. (-TS)   =       0.00000002 Ry
     internal energy E=F+TS    =     -47.81963018 Ry

     The total energy is F=E-TS. E is the sum of the following terms:
     one-electron contribution =    -522.81185361 Ry
     hartree contribution      =     265.07358224 Ry
     xc contribution           =     -16.61466443 Ry
     ewald contribution        =     226.53330563 Ry

     convergence has been achieved in  12 iterations

     negative rho (up, down):  1.847E-04 0.000E+00

     Forces acting on atoms (cartesian axes, Ry/au):

     atom    1 type  1   force =     0.00000000    0.00000000   -0.00139192
     atom    2 type  1   force =    -0.00000000    0.00000000   -0.00101671
     atom    3 type  1   force =     0.00000000    0.00000000    0.00139192
     atom    4 type  1   force =     0.00000000    0.00000000    0.00101671

     Total force =     0.002438     Total SCF correction =     0.000011


     Computing stress (Cartesian axis) and pressure


     negative rho (up, down):  1.847E-04 0.000E+00
          total   stress  (Ry/bohr**3)                   (kbar)     P=        1.47
   0.00000561   0.00000000   0.00000000            0.83        0.00        0.00
   0.00000000   0.00000561   0.00000000            0.00        0.83        0.00
   0.00000000   0.00000000   0.00001878            0.00        0.00        2.76

     Energy error            =      1.6E-05 Ry
     Gradient error          =      1.4E-03 Ry/Bohr
     Cell gradient error     =      8.3E-01 kbar

     number of scf cycles    =   5
     number of bfgs steps    =   4

     enthalpy           old  =     -47.8196145835 Ry
     enthalpy           new  =     -47.8196301538 Ry

     CASE: enthalpy          _new < enthalpy          _old

     new trust radius        =       0.0051502008 bohr
     new conv_thr            =            1.6E-11 Ry

     new unit-cell volume =    708.97897 a.u.^3 (   105.05984 Ang^3 )
     density =      0.75935 g/cm^3

CELL_PARAMETERS (alat=  4.65610675)
   0.999571813   0.000000000   0.000000000
  -0.499785907   0.865654583   0.000000000
   0.000000000   0.000000000   8.117194158

ATOMIC_POSITIONS (crystal)
C            -0.0000000000        0.0000000000        0.4121661053
C             0.3333333330        0.6666666660        0.4121352410
C            -0.0000000000       -0.0000000000        0.5878338947
C             0.6666666660        0.3333333330        0.5878647590



     Writing config-only to output data dir ../tmp/gr.save/
     NEW-OLD atomic charge density approx. for the potential

     Check: negative core charge=   -0.000004

     negative rho (up, down):  1.838E-04 0.000E+00
     extrapolated charge   15.99724, renormalised to   16.00000

     total cpu time spent up to now is       26.4 secs

     Self-consistent Calculation

     iteration #  1     ecut=    60.00 Ry     beta= 0.70
     Davidson diagonalization with overlap
     ethr =  1.00E-06,  avg # of iterations =  5.4

     Threshold (ethr) on eigenvalues was too large:
     Diagonalizing with lowered threshold

     Davidson diagonalization with overlap
     ethr =  5.81E-08,  avg # of iterations =  4.0

     negative rho (up, down):  1.854E-04 0.000E+00

     total cpu time spent up to now is       27.0 secs

     total energy              =     -47.81964967 Ry
     estimated scf accuracy    <       0.00001160 Ry

     iteration #  2     ecut=    60.00 Ry     beta= 0.70
     Davidson diagonalization with overlap
     ethr =  7.25E-08,  avg # of iterations =  3.0

     negative rho (up, down):  1.854E-04 0.000E+00

     total cpu time spent up to now is       27.2 secs

     total energy              =     -47.81965159 Ry
     estimated scf accuracy    <       0.00000230 Ry

     iteration #  3     ecut=    60.00 Ry     beta= 0.70
     Davidson diagonalization with overlap
     ethr =  1.44E-08,  avg # of iterations =  3.8

     negative rho (up, down):  1.856E-04 0.000E+00

     total cpu time spent up to now is       27.5 secs

     total energy              =     -47.81965270 Ry
     estimated scf accuracy    <       0.00000145 Ry

     iteration #  4     ecut=    60.00 Ry     beta= 0.70
     Davidson diagonalization with overlap
     ethr =  9.08E-09,  avg # of iterations =  2.1

     negative rho (up, down):  1.856E-04 0.000E+00

     total cpu time spent up to now is       27.6 secs

     total energy              =     -47.81965297 Ry
     estimated scf accuracy    <       0.00000007 Ry

     iteration #  5     ecut=    60.00 Ry     beta= 0.70
     Davidson diagonalization with overlap
     ethr =  4.41E-10,  avg # of iterations =  8.9

     negative rho (up, down):  1.857E-04 0.000E+00

     total cpu time spent up to now is       28.1 secs

     total energy              =     -47.81965323 Ry
     estimated scf accuracy    <       0.00000018 Ry

     iteration #  6     ecut=    60.00 Ry     beta= 0.70
     Davidson diagonalization with overlap
     ethr =  4.41E-10,  avg # of iterations =  1.3

     negative rho (up, down):  1.858E-04 0.000E+00

     total cpu time spent up to now is       28.3 secs

     total energy              =     -47.81965318 Ry
     estimated scf accuracy    <       0.00000009 Ry

     iteration #  7     ecut=    60.00 Ry     beta= 0.70
     Davidson diagonalization with overlap
     ethr =  4.41E-10,  avg # of iterations =  4.0

     negative rho (up, down):  1.858E-04 0.000E+00

     total cpu time spent up to now is       28.5 secs

     total energy              =     -47.81965321 Ry
     estimated scf accuracy    <          9.1E-09 Ry

     iteration #  8     ecut=    60.00 Ry     beta= 0.70
     Davidson diagonalization with overlap
     ethr =  5.68E-11,  avg # of iterations =  3.8

     negative rho (up, down):  1.858E-04 0.000E+00

     total cpu time spent up to now is       28.8 secs

     total energy              =     -47.81965322 Ry
     estimated scf accuracy    <          7.0E-09 Ry

     iteration #  9     ecut=    60.00 Ry     beta= 0.70
     Davidson diagonalization with overlap
     ethr =  4.40E-11,  avg # of iterations =  1.3

     negative rho (up, down):  1.857E-04 0.000E+00

     total cpu time spent up to now is       29.0 secs

     total energy              =     -47.81965321 Ry
     estimated scf accuracy    <          7.7E-09 Ry

     iteration # 10     ecut=    60.00 Ry     beta= 0.70
     Davidson diagonalization with overlap
     ethr =  4.40E-11,  avg # of iterations =  3.4

     negative rho (up, down):  1.857E-04 0.000E+00

     total cpu time spent up to now is       29.2 secs

     total energy              =     -47.81965322 Ry
     estimated scf accuracy    <          3.4E-10 Ry

     iteration # 11     ecut=    60.00 Ry     beta= 0.70
     Davidson diagonalization with overlap
     ethr =  2.15E-12,  avg # of iterations =  5.4

     negative rho (up, down):  1.857E-04 0.000E+00

     total cpu time spent up to now is       29.5 secs

     total energy              =     -47.81965322 Ry
     estimated scf accuracy    <          3.0E-10 Ry

     iteration # 12     ecut=    60.00 Ry     beta= 0.70
     Davidson diagonalization with overlap
     ethr =  1.88E-12,  avg # of iterations =  1.3

     negative rho (up, down):  1.857E-04 0.000E+00

     total cpu time spent up to now is       29.7 secs

     total energy              =     -47.81965322 Ry
     estimated scf accuracy    <          3.0E-10 Ry

     iteration # 13     ecut=    60.00 Ry     beta= 0.70
     Davidson diagonalization with overlap
     ethr =  1.88E-12,  avg # of iterations =  1.9

     negative rho (up, down):  1.857E-04 0.000E+00

     total cpu time spent up to now is       29.8 secs

     total energy              =     -47.81965322 Ry
     estimated scf accuracy    <          5.2E-11 Ry

     iteration # 14     ecut=    60.00 Ry     beta= 0.70
     Davidson diagonalization with overlap
     ethr =  3.23E-13,  avg # of iterations =  2.8

     negative rho (up, down):  1.857E-04 0.000E+00

     total cpu time spent up to now is       30.1 secs

     total energy              =     -47.81965322 Ry
     estimated scf accuracy    <          7.3E-11 Ry

     iteration # 15     ecut=    60.00 Ry     beta= 0.70
     Davidson diagonalization with overlap
     ethr =  3.23E-13,  avg # of iterations =  3.0

     negative rho (up, down):  1.857E-04 0.000E+00

     total cpu time spent up to now is       30.3 secs

     total energy              =     -47.81965322 Ry
     estimated scf accuracy    <          2.5E-10 Ry

     iteration # 16     ecut=    60.00 Ry     beta= 0.70
     Davidson diagonalization with overlap
     ethr =  3.23E-13,  avg # of iterations =  1.0

     negative rho (up, down):  1.857E-04 0.000E+00

     total cpu time spent up to now is       30.4 secs

     total energy              =     -47.81965322 Ry
     estimated scf accuracy    <          2.1E-10 Ry

     iteration # 17     ecut=    60.00 Ry     beta= 0.70
     Davidson diagonalization with overlap
     ethr =  3.23E-13,  avg # of iterations =  1.0

     negative rho (up, down):  1.857E-04 0.000E+00

     total cpu time spent up to now is       30.6 secs

     total energy              =     -47.81965322 Ry
     estimated scf accuracy    <          2.7E-10 Ry

     iteration # 18     ecut=    60.00 Ry     beta= 0.70
     Davidson diagonalization with overlap
     ethr =  3.23E-13,  avg # of iterations =  2.6

     negative rho (up, down):  1.857E-04 0.000E+00

     total cpu time spent up to now is       30.8 secs

     total energy              =     -47.81965322 Ry
     estimated scf accuracy    <          5.2E-11 Ry

     iteration # 19     ecut=    60.00 Ry     beta= 0.70
     Davidson diagonalization with overlap
     ethr =  3.23E-13,  avg # of iterations =  4.0

     negative rho (up, down):  1.857E-04 0.000E+00

     total cpu time spent up to now is       31.0 secs

     End of self-consistent calculation

          k = 0.0000 0.0000 0.0000 (  5565 PWs)   bands (ev):

   -20.0502 -19.9463  -8.4776  -7.7117  -3.5287  -3.5287  -3.5232  -3.5232
     2.7781   3.1512   3.5616   4.8337

          k =-0.0000 0.1444 0.0000 (  5582 PWs)   bands (ev):

   -19.6802 -19.5788  -8.0313  -7.2774  -4.9125  -4.8973  -4.2352  -4.2244
     3.2808   3.6574   4.0688   5.3382

          k =-0.0000 0.2888 0.0000 (  5566 PWs)   bands (ev):

   -18.5797 -18.4856  -7.9244  -7.8920  -6.7203  -6.0075  -5.5471  -5.5321
     4.7841   5.1634   5.5891   6.6396

          k =-0.0000 0.4332 0.0000 (  5594 PWs)   bands (ev):

   -16.7861 -16.7038 -11.2109 -11.1611  -6.5561  -6.5393  -4.6868  -4.0787
     3.1478   3.5306   7.0449   7.1395

          k = 0.0000-0.5776 0.0000 (  5604 PWs)   bands (ev):

   -14.7657 -14.7277 -13.7392 -13.7102  -6.9189  -6.9017  -2.9771  -2.7052
     1.0925   1.3793   6.8872   7.0267

          k = 0.1251 0.2166 0.0000 (  5559 PWs)   bands (ev):

   -18.9450 -18.8484  -7.1513  -6.7117  -6.6979  -6.4233  -5.6395  -5.6298
     4.2853   4.6675   5.0840   6.3459

          k = 0.1251 0.3610 0.0000 (  5578 PWs)   bands (ev):

   -17.4970 -17.4100  -9.5104  -9.4740  -7.1638  -7.1420  -5.4569  -4.7938
     4.6210   4.8769   6.2818   6.6795

          k = 0.1251 0.5054 0.0000 (  5571 PWs)   bands (ev):

   -15.4201 -15.3486 -12.5199 -12.4664  -7.9333  -7.9072  -3.2710  -2.8021
     1.6216   1.9411   8.4450   8.6045

          k = 0.2501 0.4332 0.0000 (  5528 PWs)   bands (ev):

   -15.7500 -15.6749 -11.0173 -10.9922  -9.4581  -9.4394  -3.4858  -2.9268
     2.2456   2.4719   8.7310   9.0478

          k = 0.2501 0.5776 0.0000 (  5540 PWs)   bands (ev):

   -13.8177 -13.7834 -12.9387 -12.9234 -10.2487 -10.2148  -1.6339  -1.3730
     0.4820   0.5221  10.3746  10.4157

     the Fermi energy is    -0.2684 ev

!    total energy              =     -47.81965322 Ry
     estimated scf accuracy    <          4.2E-13 Ry
     smearing contrib. (-TS)   =       0.00000002 Ry
     internal energy E=F+TS    =     -47.81965324 Ry

     The total energy is F=E-TS. E is the sum of the following terms:
     one-electron contribution =    -522.34366319 Ry
     hartree contribution      =     264.84010999 Ry
     xc contribution           =     -16.61536924 Ry
     ewald contribution        =     226.29926919 Ry

     convergence has been achieved in  19 iterations

     negative rho (up, down):  1.857E-04 0.000E+00

     Forces acting on atoms (cartesian axes, Ry/au):

     atom    1 type  1   force =     0.00000000    0.00000000   -0.00145734
     atom    2 type  1   force =    -0.00000000    0.00000000   -0.00091131
     atom    3 type  1   force =    -0.00000000   -0.00000000    0.00145734
     atom    4 type  1   force =     0.00000000    0.00000000    0.00091131

     Total force =     0.002431     Total SCF correction =     0.000002


     Computing stress (Cartesian axis) and pressure


     negative rho (up, down):  1.857E-04 0.000E+00
          total   stress  (Ry/bohr**3)                   (kbar)     P=        1.69
   0.00000810   0.00000000   0.00000000            1.19        0.00        0.00
   0.00000000   0.00000810   0.00000000            0.00        1.19        0.00
   0.00000000   0.00000000   0.00001834            0.00        0.00        2.70

     Energy error            =      2.3E-05 Ry
     Gradient error          =      1.5E-03 Ry/Bohr
     Cell gradient error     =      1.2E+00 kbar

     number of scf cycles    =   6
     number of bfgs steps    =   5

     enthalpy           old  =     -47.8196301538 Ry
     enthalpy           new  =     -47.8196532170 Ry

     CASE: enthalpy          _new < enthalpy          _old

     new trust radius        =       0.0077253011 bohr
     new conv_thr            =            2.3E-11 Ry

     new unit-cell volume =    708.84115 a.u.^3 (   105.03942 Ang^3 )
     density =      0.75950 g/cm^3

CELL_PARAMETERS (alat=  4.65610675)
   0.999474653   0.000000000   0.000000000
  -0.499737327   0.865570440   0.000000000
   0.000000000   0.000000000   8.117194158

ATOMIC_POSITIONS (crystal)
C             0.0000000000        0.0000000000        0.4119686461
C             0.3333333330        0.6666666660        0.4119308384
C            -0.0000000000       -0.0000000000        0.5880313539
C             0.6666666660        0.3333333330        0.5880691616



     Writing config-only to output data dir ../tmp/gr.save/
     NEW-OLD atomic charge density approx. for the potential

     Check: negative core charge=   -0.000004

     negative rho (up, down):  1.845E-04 0.000E+00
     extrapolated charge   15.99689, renormalised to   16.00000

     total cpu time spent up to now is       31.6 secs

     Self-consistent Calculation

     iteration #  1     ecut=    60.00 Ry     beta= 0.70
     Davidson diagonalization with overlap
     ethr =  1.00E-06,  avg # of iterations =  6.4

     negative rho (up, down):  1.862E-04 0.000E+00

     total cpu time spent up to now is       31.9 secs

     total energy              =     -47.81967836 Ry
     estimated scf accuracy    <       0.00002409 Ry

     iteration #  2     ecut=    60.00 Ry     beta= 0.70
     Davidson diagonalization with overlap
     ethr =  1.51E-07,  avg # of iterations =  3.5

     negative rho (up, down):  1.867E-04 0.000E+00

     total cpu time spent up to now is       32.2 secs

     total energy              =     -47.81968417 Ry
     estimated scf accuracy    <       0.00000242 Ry

     iteration #  3     ecut=    60.00 Ry     beta= 0.70
     Davidson diagonalization with overlap
     ethr =  1.51E-08,  avg # of iterations =  4.8

     negative rho (up, down):  1.868E-04 0.000E+00

     total cpu time spent up to now is       32.5 secs

     total energy              =     -47.81968642 Ry
     estimated scf accuracy    <       0.00000278 Ry

     iteration #  4     ecut=    60.00 Ry     beta= 0.70
     Davidson diagonalization with overlap
     ethr =  1.51E-08,  avg # of iterations =  2.0

     negative rho (up, down):  1.870E-04 0.000E+00

     total cpu time spent up to now is       32.6 secs

     total energy              =     -47.81968675 Ry
     estimated scf accuracy    <       0.00000020 Ry

     iteration #  5     ecut=    60.00 Ry     beta= 0.70
     Davidson diagonalization with overlap
     ethr =  1.26E-09,  avg # of iterations =  7.3

     negative rho (up, down):  1.871E-04 0.000E+00

     total cpu time spent up to now is       33.0 secs

     total energy              =     -47.81968707 Ry
     estimated scf accuracy    <       0.00000094 Ry

     iteration #  6     ecut=    60.00 Ry     beta= 0.70
     Davidson diagonalization with overlap
     ethr =  1.26E-09,  avg # of iterations =  3.2

     negative rho (up, down):  1.872E-04 0.000E+00

     total cpu time spent up to now is       33.3 secs

     total energy              =     -47.81968706 Ry
     estimated scf accuracy    <       0.00000017 Ry

     iteration #  7     ecut=    60.00 Ry     beta= 0.70
     Davidson diagonalization with overlap
     ethr =  1.04E-09,  avg # of iterations =  3.4

     negative rho (up, down):  1.872E-04 0.000E+00

     total cpu time spent up to now is       33.5 secs

     total energy              =     -47.81968713 Ry
     estimated scf accuracy    <          9.8E-09 Ry

     iteration #  8     ecut=    60.00 Ry     beta= 0.70
     Davidson diagonalization with overlap
     ethr =  6.12E-11,  avg # of iterations =  4.9

     negative rho (up, down):  1.872E-04 0.000E+00

     total cpu time spent up to now is       33.8 secs

     total energy              =     -47.81968715 Ry
     estimated scf accuracy    <       0.00000002 Ry

     iteration #  9     ecut=    60.00 Ry     beta= 0.70
     Davidson diagonalization with overlap
     ethr =  6.12E-11,  avg # of iterations =  1.7

     negative rho (up, down):  1.872E-04 0.000E+00

     total cpu time spent up to now is       34.0 secs

     total energy              =     -47.81968714 Ry
     estimated scf accuracy    <       0.00000002 Ry

     iteration # 10     ecut=    60.00 Ry     beta= 0.70
     Davidson diagonalization with overlap
     ethr =  6.12E-11,  avg # of iterations =  1.0

     negative rho (up, down):  1.872E-04 0.000E+00

     total cpu time spent up to now is       34.1 secs

     total energy              =     -47.81968714 Ry
     estimated scf accuracy    <       0.00000001 Ry

     iteration # 11     ecut=    60.00 Ry     beta= 0.70
     Davidson diagonalization with overlap
     ethr =  6.12E-11,  avg # of iterations =  3.7

     negative rho (up, down):  1.872E-04 0.000E+00

     total cpu time spent up to now is       34.4 secs

     total energy              =     -47.81968714 Ry
     estimated scf accuracy    <          2.0E-10 Ry

     iteration # 12     ecut=    60.00 Ry     beta= 0.70
     Davidson diagonalization with overlap
     ethr =  1.28E-12,  avg # of iterations =  9.0

     negative rho (up, down):  1.872E-04 0.000E+00

     total cpu time spent up to now is       34.8 secs

     total energy              =     -47.81968714 Ry
     estimated scf accuracy    <          1.3E-10 Ry

     iteration # 13     ecut=    60.00 Ry     beta= 0.70
     Davidson diagonalization with overlap
     ethr =  8.32E-13,  avg # of iterations =  1.8

     negative rho (up, down):  1.872E-04 0.000E+00

     total cpu time spent up to now is       35.0 secs

     total energy              =     -47.81968714 Ry
     estimated scf accuracy    <          1.1E-10 Ry

     iteration # 14     ecut=    60.00 Ry     beta= 0.70
     Davidson diagonalization with overlap
     ethr =  6.69E-13,  avg # of iterations =  2.4

     negative rho (up, down):  1.872E-04 0.000E+00

     total cpu time spent up to now is       35.2 secs

     End of self-consistent calculation

          k = 0.0000 0.0000 0.0000 (  5565 PWs)   bands (ev):

   -20.0500 -19.9480  -8.4735  -7.7170  -3.5271  -3.5271  -3.5217  -3.5217
     2.7772   3.1511   3.5608   4.8353

          k =-0.0000 0.1444 0.0000 (  5582 PWs)   bands (ev):

   -19.6800 -19.5805  -8.0272  -7.2825  -4.9109  -4.8961  -4.2337  -4.2232
     3.2799   3.6574   4.0680   5.3399

          k =-0.0000 0.2888 0.0000 (  5566 PWs)   bands (ev):

   -18.5793 -18.4870  -7.9231  -7.8914  -6.7160  -6.0120  -5.5459  -5.5313
     4.7834   5.1638   5.5886   6.6444

          k =-0.0000 0.4332 0.0000 (  5594 PWs)   bands (ev):

   -16.7855 -16.7048 -11.2099 -11.1611  -6.5551  -6.5387  -4.6824  -4.0820
     3.1528   3.5304   7.0493   7.1422

          k = 0.0000-0.5777 0.0000 (  5604 PWs)   bands (ev):

   -14.7648 -14.7275 -13.7393 -13.7109  -6.9181  -6.9012  -2.9739  -2.7057
     1.0953   1.3790   6.8928   7.0299

          k = 0.1251 0.2166 0.0000 (  5559 PWs)   bands (ev):

   -18.9447 -18.8500  -7.1471  -6.7103  -6.6968  -6.4281  -5.6384  -5.6289
     4.2845   4.6677   5.0833   6.3478

          k = 0.1251 0.3610 0.0000 (  5578 PWs)   bands (ev):

   -17.4965 -17.4112  -9.5092  -9.4736  -7.1629  -7.1416  -5.4525  -4.7978
     4.6259   4.8781   6.2813   6.6801

          k = 0.1251 0.5054 0.0000 (  5571 PWs)   bands (ev):

   -15.4193 -15.3492 -12.5191 -12.4667  -7.9325  -7.9070  -3.2669  -2.8041
     1.6256   1.9409   8.4509   8.6077

          k = 0.2501 0.4332 0.0000 (  5528 PWs)   bands (ev):

   -15.7493 -15.6757 -11.0162 -10.9916  -9.4579  -9.4396  -3.4814  -2.9296
     2.2497   2.4728   8.7307   9.0494

          k = 0.2501 0.5777 0.0000 (  5540 PWs)   bands (ev):

   -13.8168 -13.7831 -12.9384 -12.9234 -10.2484 -10.2152  -1.6303  -1.3729
     0.4840   0.5231  10.3782  10.4158

     the Fermi energy is    -0.2675 ev

!    total energy              =     -47.81968714 Ry
     estimated scf accuracy    <          2.6E-12 Ry
     smearing contrib. (-TS)   =       0.00000002 Ry
     internal energy E=F+TS    =     -47.81968716 Ry

     The total energy is F=E-TS. E is the sum of the following terms:
     one-electron contribution =    -521.60271333 Ry
     hartree contribution      =     264.47035750 Ry
     xc contribution           =     -16.61614005 Ry
     ewald contribution        =     225.92880871 Ry

     convergence has been achieved in  14 iterations

     negative rho (up, down):  1.872E-04 0.000E+00

[...]
     Davidson diagonalization with overlap
     ethr =  1.11E-04,  avg # of iterations =  2.6

     negative rho (up, down):  3.034E-03 0.000E+00

     total cpu time spent up to now is      108.1 secs

     WARNING: integrated charge=    16.00000375, expected=    16.00000000

     total energy              =     -47.79551441 Ry
     estimated scf accuracy    <       0.15513140 Ry

     iteration #  7     ecut=    60.00 Ry     beta= 0.70
     Davidson diagonalization with overlap
     ethr =  1.11E-04,  avg # of iterations =  7.0

     negative rho (up, down):  4.204E-01 0.000E+00

     total cpu time spent up to now is      108.5 secs

     WARNING: integrated charge=    15.99998022, expected=    16.00000000

     total energy              =     -50.22826072 Ry
     estimated scf accuracy    <       0.03992298 Ry

     iteration #  8     ecut=    60.00 Ry     beta= 0.70
     Davidson diagonalization with overlap
     c_bands:  2 eigenvalues not converged
     c_bands:  5 eigenvalues not converged
     c_bands:  5 eigenvalues not converged
     c_bands:  2 eigenvalues not converged
     c_bands:  1 eigenvalues not converged
     c_bands:  1 eigenvalues not converged
     ethr =  1.11E-04,  avg # of iterations = 30.4

     negative rho (up, down):  5.013E-01 0.000E+00

     total cpu time spent up to now is      110.2 secs

     WARNING: integrated charge=    15.99997924, expected=    16.00000000

     total energy              =     -53.09636184 Ry
     estimated scf accuracy    <      22.23013389 Ry

     iteration #  9     ecut=    60.00 Ry     beta= 0.70
     Davidson diagonalization with overlap
     ethr =  1.11E-04,  avg # of iterations =  5.3

     negative rho (up, down):  5.733E-01 0.000E+00

     total cpu time spent up to now is      110.5 secs

     WARNING: integrated charge=    15.99997844, expected=    16.00000000

     total energy              =     -53.62256917 Ry
     estimated scf accuracy    <      25.55504714 Ry

     iteration # 10     ecut=    60.00 Ry     beta= 0.70
     Davidson diagonalization with overlap
     c_bands:  1 eigenvalues not converged
     ethr =  1.11E-04,  avg # of iterations =  8.2

     negative rho (up, down):  3.360E-02 0.000E+00

     total cpu time spent up to now is      110.8 secs

     WARNING: integrated charge=    15.99998847, expected=    16.00000000

     total energy              =     -48.24781044 Ry
     estimated scf accuracy    <      30.05507414 Ry

     iteration # 11     ecut=    60.00 Ry     beta= 0.70
     Davidson diagonalization with overlap
     c_bands:  2 eigenvalues not converged
     c_bands:  2 eigenvalues not converged
     ethr =  1.11E-04,  avg # of iterations = 20.0

     negative rho (up, down):  6.996E-03 0.000E+00

     total cpu time spent up to now is      111.9 secs

     WARNING: integrated charge=    15.99999066, expected=    16.00000000

     total energy              =     -48.41207354 Ry
     estimated scf accuracy    <       5.75485652 Ry

     iteration # 12     ecut=    60.00 Ry     beta= 0.70
     Davidson diagonalization with overlap
     c_bands:  2 eigenvalues not converged
     ethr =  1.11E-04,  avg # of iterations = 10.9

     negative rho (up, down):  5.148E-03 0.000E+00

     total cpu time spent up to now is      112.4 secs

     total energy              =     -47.24076600 Ry
     estimated scf accuracy    <       2.68455752 Ry

     iteration # 13     ecut=    60.00 Ry     beta= 0.70
     Davidson diagonalization with overlap
     c_bands:  1 eigenvalues not converged
     c_bands:  3 eigenvalues not converged
     c_bands:  1 eigenvalues not converged
     c_bands:  5 eigenvalues not converged
     ethr =  1.11E-04,  avg # of iterations = 18.3

     negative rho (up, down):  8.950E-03 0.000E+00

     total cpu time spent up to now is      113.4 secs

     total energy              =     -47.78881151 Ry
     estimated scf accuracy    <       0.00082843 Ry

     iteration # 14     ecut=    60.00 Ry     beta= 0.70
     Davidson diagonalization with overlap
     c_bands:  2 eigenvalues not converged
     c_bands:  1 eigenvalues not converged
     c_bands:  3 eigenvalues not converged
     c_bands:  2 eigenvalues not converged
     c_bands:  1 eigenvalues not converged
     ethr =  5.18E-06,  avg # of iterations = 19.7

     negative rho (up, down):  7.742E-03 0.000E+00

     total cpu time spent up to now is      114.2 secs

     total energy              =     -47.80345782 Ry
     estimated scf accuracy    <       0.00155707 Ry

     iteration # 15     ecut=    60.00 Ry     beta= 0.70
     Davidson diagonalization with overlap
     c_bands:  1 eigenvalues not converged
     ethr =  5.18E-06,  avg # of iterations =  5.3

     negative rho (up, down):  6.108E-03 0.000E+00

     total cpu time spent up to now is      114.4 secs

     total energy              =     -47.80320828 Ry
     estimated scf accuracy    <       0.00086159 Ry

     iteration # 16     ecut=    60.00 Ry     beta= 0.70
     Davidson diagonalization with overlap
     ethr =  5.18E-06,  avg # of iterations =  3.7

     negative rho (up, down):  5.769E-03 0.000E+00

     total cpu time spent up to now is      114.6 secs

     total energy              =     -47.80326198 Ry
     estimated scf accuracy    <       0.00043679 Ry

     iteration # 17     ecut=    60.00 Ry     beta= 0.70
     Davidson diagonalization with overlap
     ethr =  2.73E-06,  avg # of iterations =  5.3

     negative rho (up, down):  5.221E-06 0.000E+00

     total cpu time spent up to now is      114.9 secs

     total energy              =     -47.81203360 Ry
     estimated scf accuracy    <       0.00068915 Ry

     iteration # 18     ecut=    60.00 Ry     beta= 0.70
     Davidson diagonalization with overlap
     c_bands:  4 eigenvalues not converged
     ethr =  2.73E-06,  avg # of iterations =  9.3

     total cpu time spent up to now is      115.2 secs

     total energy              =     -47.82031717 Ry
     estimated scf accuracy    <       0.00043996 Ry

     iteration # 19     ecut=    60.00 Ry     beta= 0.70
     Davidson diagonalization with overlap
     c_bands:  1 eigenvalues not converged
     ethr =  2.73E-06,  avg # of iterations =  4.6

     total cpu time spent up to now is      115.4 secs

     total energy              =     -47.82070092 Ry
     estimated scf accuracy    <       0.00031297 Ry

     iteration # 20     ecut=    60.00 Ry     beta= 0.70
     Davidson diagonalization with overlap
     ethr =  1.96E-06,  avg # of iterations =  4.4

     total cpu time spent up to now is      115.6 secs

     total energy              =     -47.82070336 Ry
     estimated scf accuracy    <       0.00023440 Ry

     iteration # 21     ecut=    60.00 Ry     beta= 0.70
     Davidson diagonalization with overlap
     ethr =  1.47E-06,  avg # of iterations =  2.2

     negative rho (up, down):  1.878E-04 0.000E+00

     total cpu time spent up to now is      115.8 secs

     total energy              =     -47.82070382 Ry
     estimated scf accuracy    <       0.00013214 Ry

     iteration # 22     ecut=    60.00 Ry     beta= 0.70
     Davidson diagonalization with overlap
     ethr =  8.26E-07,  avg # of iterations =  4.2

     negative rho (up, down):  2.192E-04 0.000E+00

     total cpu time spent up to now is      116.1 secs

     total energy              =     -47.82073168 Ry
     estimated scf accuracy    <       0.00005448 Ry

     iteration # 23     ecut=    60.00 Ry     beta= 0.70
     Davidson diagonalization with overlap
     ethr =  3.40E-07,  avg # of iterations =  2.5

     negative rho (up, down):  2.144E-04 0.000E+00

     total cpu time spent up to now is      116.3 secs

     total energy              =     -47.82073306 Ry
     estimated scf accuracy    <       0.00005260 Ry

     iteration # 24     ecut=    60.00 Ry     beta= 0.70
     Davidson diagonalization with overlap
     ethr =  3.29E-07,  avg # of iterations =  1.1

     negative rho (up, down):  1.983E-04 0.000E+00

     total cpu time spent up to now is      116.4 secs

     total energy              =     -47.82072489 Ry
     estimated scf accuracy    <       0.00003764 Ry

     iteration # 25     ecut=    60.00 Ry     beta= 0.70
     Davidson diagonalization with overlap
     ethr =  2.35E-07,  avg # of iterations =  1.4

     negative rho (up, down):  1.660E-04 0.000E+00

     total cpu time spent up to now is      116.6 secs

     total energy              =     -47.82071936 Ry
     estimated scf accuracy    <       0.00001604 Ry

     iteration # 26     ecut=    60.00 Ry     beta= 0.70
     Davidson diagonalization with overlap
     ethr =  1.00E-07,  avg # of iterations =  4.7

     negative rho (up, down):  1.730E-04 0.000E+00

     total cpu time spent up to now is      116.9 secs

     total energy              =     -47.82073099 Ry
     estimated scf accuracy    <       0.00000236 Ry

     iteration # 27     ecut=    60.00 Ry     beta= 0.70
     Davidson diagonalization with overlap
     ethr =  1.48E-08,  avg # of iterations =  4.7

     negative rho (up, down):  1.796E-04 0.000E+00

     total cpu time spent up to now is      117.2 secs

     total energy              =     -47.82073240 Ry
     estimated scf accuracy    <       0.00000125 Ry

     iteration # 28     ecut=    60.00 Ry     beta= 0.70
     Davidson diagonalization with overlap
     ethr =  7.80E-09,  avg # of iterations =  1.9

     negative rho (up, down):  1.784E-04 0.000E+00

     total cpu time spent up to now is      117.4 secs

     total energy              =     -47.82073223 Ry
     estimated scf accuracy    <       0.00000087 Ry

     iteration # 29     ecut=    60.00 Ry     beta= 0.70
     Davidson diagonalization with overlap
     ethr =  5.47E-09,  avg # of iterations =  2.4

     negative rho (up, down):  1.735E-04 0.000E+00

     total cpu time spent up to now is      117.6 secs

     total energy              =     -47.82073215 Ry
     estimated scf accuracy    <       0.00000040 Ry

     iteration # 30     ecut=    60.00 Ry     beta= 0.70
     Davidson diagonalization with overlap
     ethr =  2.47E-09,  avg # of iterations =  6.2

     negative rho (up, down):  1.726E-04 0.000E+00

     total cpu time spent up to now is      117.9 secs

     total energy              =     -47.82073209 Ry
     estimated scf accuracy    <       0.00000098 Ry

     iteration # 31     ecut=    60.00 Ry     beta= 0.70
     Davidson diagonalization with overlap
     ethr =  2.47E-09,  avg # of iterations =  4.2

     negative rho (up, down):  1.742E-04 0.000E+00

     total cpu time spent up to now is      118.2 secs

     total energy              =     -47.82073228 Ry
     estimated scf accuracy    <       0.00000006 Ry

     iteration # 32     ecut=    60.00 Ry     beta= 0.70
     Davidson diagonalization with overlap
     ethr =  3.80E-10,  avg # of iterations =  4.9

     negative rho (up, down):  1.744E-04 0.000E+00

     total cpu time spent up to now is      118.4 secs

     total energy              =     -47.82073231 Ry
     estimated scf accuracy    <       0.00000003 Ry

     iteration # 33     ecut=    60.00 Ry     beta= 0.70
     Davidson diagonalization with overlap
     ethr =  1.56E-10,  avg # of iterations =  4.0

     negative rho (up, down):  1.743E-04 0.000E+00

     total cpu time spent up to now is      118.7 secs

     total energy              =     -47.82073232 Ry
     estimated scf accuracy    <          8.9E-10 Ry

     iteration # 34     ecut=    60.00 Ry     beta= 0.70
     Davidson diagonalization with overlap
     ethr =  5.54E-12,  avg # of iterations =  8.6

     negative rho (up, down):  1.744E-04 0.000E+00

     total cpu time spent up to now is      119.1 secs

     total energy              =     -47.82073232 Ry
     estimated scf accuracy    <          4.3E-09 Ry

     iteration # 35     ecut=    60.00 Ry     beta= 0.70
     Davidson diagonalization with overlap
     ethr =  5.54E-12,  avg # of iterations =  1.9

     negative rho (up, down):  1.744E-04 0.000E+00

     total cpu time spent up to now is      119.3 secs

     total energy              =     -47.82073232 Ry
     estimated scf accuracy    <          1.0E-09 Ry

     iteration # 36     ecut=    60.00 Ry     beta= 0.70
     Davidson diagonalization with overlap
     ethr =  5.54E-12,  avg # of iterations =  7.2

     negative rho (up, down):  1.744E-04 0.000E+00

     total cpu time spent up to now is      119.7 secs

     total energy              =     -47.82073232 Ry
     estimated scf accuracy    <          3.2E-09 Ry

     iteration # 37     ecut=    60.00 Ry     beta= 0.70
     Davidson diagonalization with overlap
     ethr =  5.54E-12,  avg # of iterations =  1.1

     negative rho (up, down):  1.744E-04 0.000E+00

     total cpu time spent up to now is      119.9 secs

     total energy              =     -47.82073232 Ry
     estimated scf accuracy    <          1.8E-09 Ry

     iteration # 38     ecut=    60.00 Ry     beta= 0.70
     Davidson diagonalization with overlap
     ethr =  5.54E-12,  avg # of iterations =  1.8

     negative rho (up, down):  1.744E-04 0.000E+00

     total cpu time spent up to now is      120.1 secs

     total energy              =     -47.82073232 Ry
     estimated scf accuracy    <          1.0E-09 Ry

     iteration # 39     ecut=    60.00 Ry     beta= 0.70
     Davidson diagonalization with overlap
     ethr =  5.54E-12,  avg # of iterations =  1.0

     negative rho (up, down):  1.744E-04 0.000E+00

     total cpu time spent up to now is      120.2 secs

     total energy              =     -47.82073232 Ry
     estimated scf accuracy    <          8.1E-10 Ry

     iteration # 40     ecut=    60.00 Ry     beta= 0.70
     Davidson diagonalization with overlap
     ethr =  5.07E-12,  avg # of iterations =  1.7

     negative rho (up, down):  1.744E-04 0.000E+00

     total cpu time spent up to now is      120.4 secs

     total energy              =     -47.82073232 Ry
     estimated scf accuracy    <          2.3E-10 Ry

     iteration # 41     ecut=    60.00 Ry     beta= 0.70
     Davidson diagonalization with overlap
     ethr =  1.46E-12,  avg # of iterations =  4.6

     negative rho (up, down):  1.744E-04 0.000E+00

     total cpu time spent up to now is      120.7 secs

     End of self-consistent calculation

          k = 0.0000 0.0000 0.0000 (  5565 PWs)   bands (ev):

   -19.9939 -19.9777  -8.2013  -7.9753  -3.5255  -3.5255  -3.5250  -3.5250
     2.6456   3.1149   3.4487   4.6000

          k =-0.0000 0.1443 0.0000 (  5580 PWs)   bands (ev):

   -19.6253 -19.6095  -7.7587  -7.5372  -4.9042  -4.9026  -4.2287  -4.2277
     3.1445   3.6200   3.9545   5.0898

          k =-0.0000 0.2887 0.0000 (  5566 PWs)   bands (ev):

   -18.5286 -18.5142  -7.9066  -7.9026  -6.4602  -6.2539  -5.5373  -5.5358
     4.6372   5.1251   5.4665   6.4434

          k =-0.0000 0.4330 0.0000 (  5594 PWs)   bands (ev):

   -16.7414 -16.7292 -11.1831 -11.1766  -6.5444  -6.5428  -4.4593  -4.2888
     3.2920   3.3914   6.9927   7.2654

          k = 0.0000-0.5774 0.0000 (  5604 PWs)   bands (ev):

   -14.7420 -14.7367 -13.7180 -13.7138  -6.9067  -6.9050  -2.8532  -2.7858
     1.1782   1.2762   6.9381   6.9622

          k = 0.1250 0.2165 0.0000 (  5559 PWs)   bands (ev):

   -18.8926 -18.8778  -6.8866  -6.7030  -6.7015  -6.6748  -5.6320  -5.6309
     4.1420   4.6283   4.9661   6.0630

          k = 0.1250 0.3609 0.0000 (  5578 PWs)   bands (ev):

   -17.4497 -17.4367  -9.4900  -9.4854  -7.1495  -7.1470  -5.2123  -5.0237
     4.7241   4.7823   6.1237   6.6371

          k = 0.1250 0.5052 0.0000 (  5571 PWs)   bands (ev):

   -15.3812 -15.3709 -12.4895 -12.4822  -7.9165  -7.9135  -3.0869  -2.9601
     1.7379   1.8278   8.5015   8.5326

          k = 0.2500 0.4330 0.0000 (  5528 PWs)   bands (ev):

   -15.7092 -15.6983 -11.0015 -10.9983  -9.4426  -9.4402  -3.2745  -3.1209
     2.3414   2.3938   8.5491   9.0303

          k = 0.2500 0.5774 0.0000 (  5540 PWs)   bands (ev):

   -13.7961 -13.7914 -12.9254 -12.9231 -10.2260 -10.2216  -1.5113  -1.4473
     0.4967   0.4977  10.3383  10.4638

     the Fermi energy is    -0.3008 ev

!    total energy              =     -47.82073232 Ry
     estimated scf accuracy    <          2.6E-12 Ry
     smearing contrib. (-TS)   =       0.00000001 Ry
     internal energy E=F+TS    =     -47.82073233 Ry

     The total energy is F=E-TS. E is the sum of the following terms:
     one-electron contribution =    -444.17823111 Ry
     hartree contribution      =     225.75658003 Ry
     xc contribution           =     -16.60813445 Ry
     ewald contribution        =     187.20905320 Ry

     convergence has been achieved in  41 iterations

     negative rho (up, down):  1.744E-04 0.000E+00

     Forces acting on atoms (cartesian axes, Ry/au):

     atom    1 type  1   force =    -0.00000000    0.00000000   -0.00000050
     atom    2 type  1   force =    -0.00000000    0.00000000    0.00001274
     atom    3 type  1   force =    -0.00000000   -0.00000000    0.00000050
     atom    4 type  1   force =    -0.00000000    0.00000000   -0.00001274

     Total force =     0.000018     Total SCF correction =     0.000000


     Computing stress (Cartesian axis) and pressure


     negative rho (up, down):  1.744E-04 0.000E+00
          total   stress  (Ry/bohr**3)                   (kbar)     P=       -0.17
   0.00000020   0.00000000   0.00000000            0.03        0.00        0.00
   0.00000000   0.00000020   0.00000000            0.00        0.03        0.00
   0.00000000   0.00000000  -0.00000377            0.00        0.00       -0.56


     Writing all to output data dir ../tmp/gr.save/
 
     init_run     :      0.58s CPU      0.73s WALL (       2 calls)
     electrons    :     91.47s CPU    109.19s WALL (      22 calls)
     update_pot   :      3.29s CPU      3.31s WALL (      20 calls)
     forces       :      2.36s CPU      2.46s WALL (      22 calls)
     stress       :      5.00s CPU      5.04s WALL (      22 calls)

     Called by init_run:
     wfcinit      :      0.13s CPU      0.17s WALL (       2 calls)
     potinit      :      0.09s CPU      0.10s WALL (       2 calls)
     hinit0       :      0.22s CPU      0.32s WALL (       2 calls)

     Called by electrons:
     c_bands      :     78.63s CPU     93.86s WALL (     331 calls)
     sum_band     :      9.61s CPU     11.57s WALL (     331 calls)
     v_of_rho     :      2.07s CPU      2.34s WALL (     345 calls)
     newd         :      0.92s CPU      1.10s WALL (     345 calls)
     mix_rho      :      0.36s CPU      0.43s WALL (     331 calls)

     Called by c_bands:
     init_us_2    :      0.83s CPU      0.97s WALL (    7080 calls)
     init_us_2:cp :      0.83s CPU      0.97s WALL (    7080 calls)
     cegterg      :     75.59s CPU     90.45s WALL (    3401 calls)

     Called by *egterg:
     cdiaghg      :      2.18s CPU      2.60s WALL (   21265 calls)
     h_psi        :     63.87s CPU     76.45s WALL (   21641 calls)
     s_psi        :      1.40s CPU      1.70s WALL (   21641 calls)
     g_psi        :      0.34s CPU      0.41s WALL (   18220 calls)

     Called by h_psi:
     h_psi:calbec :      1.97s CPU      2.40s WALL (   21641 calls)
     vloc_psi     :     60.33s CPU     72.14s WALL (   21641 calls)
     add_vuspsi   :      1.44s CPU      1.75s WALL (   21641 calls)

     General routines
     calbec       :      2.49s CPU      3.03s WALL (   26051 calls)
     fft          :      1.34s CPU      1.66s WALL (    4373 calls)
     ffts         :      0.09s CPU      0.11s WALL (     331 calls)
     fftw         :     64.03s CPU     76.71s WALL (  374494 calls)
 
     Parallel routines
 
     PWSCF        :   1m42.93s CPU   2m 1.04s WALL

 
   This run was terminated on:   0:19:53   2Feb2022            

=------------------------------------------------------------------------------=
   JOB DONE.
=------------------------------------------------------------------------------=
