
     Program PWSCF v.7.0 starts on  2Feb2022 at  0:19:54 

     This program is part of the open-source Quantum ESPRESSO suite
     for quantum simulation of materials; please cite
         "P. Giannozzi et al., J. Phys.:Condens. Matter 21 395502 (2009);
         "P. Giannozzi et al., J. Phys.:Condens. Matter 29 465901 (2017);
         "P. Giannozzi et al., J. Chem. Phys. 152 154105 (2020);
          URL http://www.quantum-espresso.org", 
     in publications or presentations arising from this work. More details at
     http://www.quantum-espresso.org/quote

     Parallel version (MPI), running on     4 processors

     MPI processes distributed on     1 nodes
     R & G space division:  proc/nbgrp/npool/nimage =       4
     241492 MiB available memory on the printing compute node when the environment starts
 
     Waiting for input...
     Reading input from standard input

     Current dimensions of program PWSCF are:
     Max number of different atomic species (ntypx) = 10
     Max number of k-points (npk) =  40000
     Max angular momentum in pseudopotentials (lmaxx) =  4

     IMPORTANT: XC functional enforced from input :
     Exchange-correlation= VDW-DF
                           (   1   4   4   0   1   0   0)
     Any further DFT definition will be discarded
     Please, verify this is what you really want


     Subspace diagonalization in iterative solution of the eigenvalue problem:
     a serial algorithm will be used

 
     Parallelization info
     --------------------
     sticks:   dense  smooth     PW     G-vecs:    dense   smooth      PW
     Min          90      90     27                11152    11152    1895
     Max          91      91     28                11175    11175    1922
     Sum         361     361    109                44659    44659    7615
 
     Using Slab Decomposition
 


     bravais-lattice index     =            4
     lattice parameter (alat)  =       4.6561  a.u.
     unit-cell volume          =     709.5865 (a.u.)^3
     number of atoms/cell      =            4
     number of atomic types    =            1
     number of electrons       =        16.00
     number of Kohn-Sham states=           12
     kinetic-energy cutoff     =      60.0000  Ry
     charge density cutoff     =     240.0000  Ry
     scf convergence threshold =      1.0E-09
     mixing beta               =       0.7000
     number of iterations used =            8  plain     mixing
     energy convergence thresh.=      1.0E-05
     force convergence thresh. =      1.0E-04
     press convergence thresh. =      5.0E-02
     Exchange-correlation= VDW-DF
                           (   1   4   4   0   1   0   0)
     nstep                     =           50


     celldm(1)=   4.656107  celldm(2)=   0.000000  celldm(3)=   8.117194
     celldm(4)=   0.000000  celldm(5)=   0.000000  celldm(6)=   0.000000

     crystal axes: (cart. coord. in units of alat)
               a(1) = (   1.000000   0.000000   0.000000 )  
               a(2) = (  -0.500000   0.866025   0.000000 )  
               a(3) = (   0.000000   0.000000   8.117194 )  

     reciprocal axes: (cart. coord. in units 2 pi/alat)
               b(1) = (  1.000000  0.577350  0.000000 )  
               b(2) = (  0.000000  1.154701  0.000000 )  
               b(3) = (  0.000000  0.000000  0.123195 )  


     PseudoPot. # 1 for C  read from file:
     ../pseudo/C.pbe-n-rrkjus_psl.0.1.UPF
     MD5 check sum: 96a6a315177d77e6c95bf6fd3870f9e3
     Pseudo is Ultrasoft + core correction, Zval =  4.0
     Generated using &quot;atomic&quot; code by A. Dal Corso  v.6.3MaX
     Using radial grid of 1073 points,  4 beta functions with: 
                l(1) =   0
                l(2) =   0
                l(3) =   1
                l(4) =   1
     Q(r) pseudized with 0 coefficients 


     atomic species   valence    mass     pseudopotential
        C              4.00    12.01070     C ( 1.00)

     12 Sym. Ops., with inversion, found



   Cartesian axes

     site n.     atom                  positions (alat units)
         1           C   tau(   1) = (   0.0000000   0.0000000   3.3483426  )
         2           C   tau(   2) = (   0.0000000   0.5773503   3.3483426  )
         3           C   tau(   3) = (   0.0000000   0.0000000   4.7688516  )
         4           C   tau(   4) = (   0.5000000   0.2886751   4.7688516  )

     number of k points=    10  Marzari-Vanderbilt smearing, width (Ry)=  0.0200
                       cart. coord. in units 2pi/alat
        k(    1) = (   0.0000000   0.0000000   0.0000000), wk =   0.0312500
        k(    2) = (   0.0000000   0.1443376   0.0000000), wk =   0.1875000
        k(    3) = (   0.0000000   0.2886751   0.0000000), wk =   0.1875000
        k(    4) = (   0.0000000   0.4330127   0.0000000), wk =   0.1875000
        k(    5) = (   0.0000000  -0.5773503   0.0000000), wk =   0.0937500
        k(    6) = (   0.1250000   0.2165064   0.0000000), wk =   0.1875000
        k(    7) = (   0.1250000   0.3608439   0.0000000), wk =   0.3750000
        k(    8) = (   0.1250000   0.5051815   0.0000000), wk =   0.3750000
        k(    9) = (   0.2500000   0.4330127   0.0000000), wk =   0.1875000
        k(   10) = (   0.2500000   0.5773503   0.0000000), wk =   0.1875000

     Dense  grid:    44659 G-vectors     FFT dimensions: (  24,  24, 192)

     Estimated max dynamical RAM per process >      19.86 MB

     Estimated total dynamical RAM >      79.43 MB

     Check: negative core charge=   -0.000004

     Initial potential from superposition of free atoms

     starting charge      15.9998, renormalised to      16.0000

     negative rho (up, down):  1.330E-04 0.000E+00


     %%%%%%%%%%%%%%%%%%%%%%%%%%%%%%%%%%%%%%%%%%%%%%%%%%%%%%%%%%%%%%%%%%%%%%%%
     %                                                                      %
     % You are using vdW-DF, which was implemented by the Thonhauser group. %
     % Please cite the following two papers that made this development      %
     % possible and the two reviews that describe the various versions:     %
     %                                                                      %
     %   T. Thonhauser et al., PRL 115, 136402 (2015).                      %
     %   T. Thonhauser et al., PRB 76, 125112 (2007).                       %
     %   K. Berland et al., Rep. Prog. Phys. 78, 066501 (2015).             %
     %   D.C. Langreth et al., J. Phys.: Condens. Matter 21, 084203 (2009). %
     %                                                                      %
     %                                                                      %
     % If you are calculating the stress with vdW-DF, please also cite:     %
     %                                                                      %
     %   R. Sabatini et al., J. Phys.: Condens. Matter 24, 424209 (2012).   %
     %                                                                      %
     %%%%%%%%%%%%%%%%%%%%%%%%%%%%%%%%%%%%%%%%%%%%%%%%%%%%%%%%%%%%%%%%%%%%%%%%


     Starting wfcs are   16 randomized atomic wfcs

     total cpu time spent up to now is        9.3 secs

     Self-consistent Calculation

     iteration #  1     ecut=    60.00 Ry     beta= 0.70
     Davidson diagonalization with overlap
     ethr =  1.00E-02,  avg # of iterations =  3.9

     Threshold (ethr) on eigenvalues was too large:
     Diagonalizing with lowered threshold

     Davidson diagonalization with overlap
     ethr =  7.73E-04,  avg # of iterations =  6.8

     negative rho (up, down):  3.866E-05 0.000E+00

     total cpu time spent up to now is       10.0 secs

     total energy              =     -48.13316437 Ry
     estimated scf accuracy    <       0.40065418 Ry

     iteration #  2     ecut=    60.00 Ry     beta= 0.70
     Davidson diagonalization with overlap
     ethr =  2.50E-03,  avg # of iterations =  1.4

     negative rho (up, down):  1.375E-04 0.000E+00

     total cpu time spent up to now is       10.3 secs

     total energy              =     -48.13724970 Ry
     estimated scf accuracy    <       0.02172447 Ry

     iteration #  3     ecut=    60.00 Ry     beta= 0.70
     Davidson diagonalization with overlap
     c_bands:  3 eigenvalues not converged
     c_bands:  1 eigenvalues not converged
     c_bands:  4 eigenvalues not converged
     c_bands:  1 eigenvalues not converged
     c_bands:  2 eigenvalues not converged
     c_bands:  1 eigenvalues not converged
     ethr =  1.36E-04,  avg # of iterations = 17.0

     negative rho (up, down):  1.397E-04 0.000E+00

     total cpu time spent up to now is       11.0 secs

     total energy              =     -48.20870095 Ry
     estimated scf accuracy    <       0.03071728 Ry

     iteration #  4     ecut=    60.00 Ry     beta= 0.70
     Davidson diagonalization with overlap
     ethr =  1.36E-04,  avg # of iterations =  5.0

     negative rho (up, down):  1.419E-04 0.000E+00

     total cpu time spent up to now is       11.3 secs

     total energy              =     -48.21592272 Ry
     estimated scf accuracy    <       0.03980366 Ry

     iteration #  5     ecut=    60.00 Ry     beta= 0.70
     Davidson diagonalization with overlap
     ethr =  1.36E-04,  avg # of iterations =  1.3

     negative rho (up, down):  1.139E-04 0.000E+00

     total cpu time spent up to now is       11.6 secs

     total energy              =     -48.20096912 Ry
     estimated scf accuracy    <       0.04959130 Ry

     iteration #  6     ecut=    60.00 Ry     beta= 0.70
     Davidson diagonalization with overlap
     ethr =  1.36E-04,  avg # of iterations =  1.6

     negative rho (up, down):  1.164E-04 0.000E+00

     total cpu time spent up to now is       11.8 secs

     total energy              =     -48.19716823 Ry
     estimated scf accuracy    <       0.02719314 Ry

     iteration #  7     ecut=    60.00 Ry     beta= 0.70
     Davidson diagonalization with overlap
     ethr =  1.36E-04,  avg # of iterations =  1.1

     negative rho (up, down):  1.152E-04 0.000E+00

     total cpu time spent up to now is       12.0 secs

     total energy              =     -48.19849684 Ry
     estimated scf accuracy    <       0.01837282 Ry

     iteration #  8     ecut=    60.00 Ry     beta= 0.70
     Davidson diagonalization with overlap
     ethr =  1.15E-04,  avg # of iterations =  1.0

     negative rho (up, down):  1.120E-04 0.000E+00

     total cpu time spent up to now is       12.3 secs

     total energy              =     -48.19971226 Ry
     estimated scf accuracy    <       0.01952653 Ry

     iteration #  9     ecut=    60.00 Ry     beta= 0.70
     Davidson diagonalization with overlap
     ethr =  1.15E-04,  avg # of iterations =  1.0

     negative rho (up, down):  1.265E-04 0.000E+00

     total cpu time spent up to now is       12.5 secs

     total energy              =     -48.19426632 Ry
     estimated scf accuracy    <       0.02105612 Ry

     iteration # 10     ecut=    60.00 Ry     beta= 0.70
     Davidson diagonalization with overlap
     ethr =  1.15E-04,  avg # of iterations =  1.0

     negative rho (up, down):  1.440E-04 0.000E+00

     total cpu time spent up to now is       12.7 secs

     total energy              =     -48.19048718 Ry
     estimated scf accuracy    <       0.01127266 Ry

     iteration # 11     ecut=    60.00 Ry     beta= 0.70
     Davidson diagonalization with overlap
     ethr =  7.05E-05,  avg # of iterations =  1.9

     negative rho (up, down):  1.394E-04 0.000E+00

     total cpu time spent up to now is       13.0 secs

     total energy              =     -48.19202692 Ry
     estimated scf accuracy    <       0.00349608 Ry

     iteration # 12     ecut=    60.00 Ry     beta= 0.70
     Davidson diagonalization with overlap
     c_bands:  1 eigenvalues not converged
     ethr =  2.19E-05,  avg # of iterations =  5.8

     negative rho (up, down):  1.761E-04 0.000E+00

     total cpu time spent up to now is       13.2 secs

     total energy              =     -48.18972878 Ry
     estimated scf accuracy    <       0.00430183 Ry

     iteration # 13     ecut=    60.00 Ry     beta= 0.70
     Davidson diagonalization with overlap
     ethr =  2.19E-05,  avg # of iterations =  6.6

     negative rho (up, down):  1.699E-04 0.000E+00

     total cpu time spent up to now is       13.6 secs

     total energy              =     -48.19140231 Ry
     estimated scf accuracy    <       0.00238273 Ry

     iteration # 14     ecut=    60.00 Ry     beta= 0.70
     Davidson diagonalization with overlap
     ethr =  1.49E-05,  avg # of iterations =  1.9

     negative rho (up, down):  1.680E-04 0.000E+00

     total cpu time spent up to now is       13.9 secs

     total energy              =     -48.19124157 Ry
     estimated scf accuracy    <       0.00058165 Ry

     iteration # 15     ecut=    60.00 Ry     beta= 0.70
     Davidson diagonalization with overlap
     c_bands:  2 eigenvalues not converged
     ethr =  3.64E-06,  avg # of iterations = 10.0

     negative rho (up, down):  1.690E-04 0.000E+00

     total cpu time spent up to now is       14.3 secs

     total energy              =     -48.19161481 Ry
     estimated scf accuracy    <       0.00013597 Ry

     iteration # 16     ecut=    60.00 Ry     beta= 0.70
     Davidson diagonalization with overlap
     ethr =  8.50E-07,  avg # of iterations =  6.1

     negative rho (up, down):  1.697E-04 0.000E+00

     total cpu time spent up to now is       14.6 secs

     total energy              =     -48.19166770 Ry
     estimated scf accuracy    <       0.00010358 Ry

     iteration # 17     ecut=    60.00 Ry     beta= 0.70
     Davidson diagonalization with overlap
     ethr =  6.47E-07,  avg # of iterations =  1.7

     negative rho (up, down):  1.738E-04 0.000E+00

     total cpu time spent up to now is       14.8 secs

     WARNING: integrated charge=    16.00000161, expected=    16.00000000

     total energy              =     -48.19169610 Ry
     estimated scf accuracy    <       0.00009744 Ry

     iteration # 18     ecut=    60.00 Ry     beta= 0.70
     Davidson diagonalization with overlap
     ethr =  6.09E-07,  avg # of iterations =  2.9

     negative rho (up, down):  1.747E-04 0.000E+00

     total cpu time spent up to now is       15.1 secs

     total energy              =     -48.19175105 Ry
     estimated scf accuracy    <       0.00014658 Ry

     iteration # 19     ecut=    60.00 Ry     beta= 0.70
     Davidson diagonalization with overlap
     ethr =  6.09E-07,  avg # of iterations =  5.1

     negative rho (up, down):  1.771E-04 0.000E+00

     total cpu time spent up to now is       15.4 secs

     WARNING: integrated charge=    16.00000161, expected=    16.00000000

     total energy              =     -48.19167897 Ry
     estimated scf accuracy    <       0.00023139 Ry

     iteration # 20     ecut=    60.00 Ry     beta= 0.70
     Davidson diagonalization with overlap
     ethr =  6.09E-07,  avg # of iterations =  2.6

     negative rho (up, down):  1.762E-04 0.000E+00

     total cpu time spent up to now is       15.6 secs

     WARNING: integrated charge=    16.00000164, expected=    16.00000000

     total energy              =     -48.19162935 Ry
     estimated scf accuracy    <       0.00009077 Ry

     iteration # 21     ecut=    60.00 Ry     beta= 0.70
     Davidson diagonalization with overlap
     ethr =  5.67E-07,  avg # of iterations =  3.2

     negative rho (up, down):  1.744E-04 0.000E+00

     total cpu time spent up to now is       15.9 secs

     WARNING: integrated charge=    16.00000163, expected=    16.00000000

     total energy              =     -48.19164601 Ry
     estimated scf accuracy    <       0.00000383 Ry

     iteration # 22     ecut=    60.00 Ry     beta= 0.70
     Davidson diagonalization with overlap
     ethr =  2.40E-08,  avg # of iterations =  7.6

     negative rho (up, down):  1.742E-04 0.000E+00

     total cpu time spent up to now is       16.4 secs

     WARNING: integrated charge=    16.00000162, expected=    16.00000000

     total energy              =     -48.19165424 Ry
     estimated scf accuracy    <       0.00000457 Ry

     iteration # 23     ecut=    60.00 Ry     beta= 0.70
     Davidson diagonalization with overlap
     ethr =  2.40E-08,  avg # of iterations =  1.1

     negative rho (up, down):  1.724E-04 0.000E+00

     total cpu time spent up to now is       16.6 secs

     WARNING: integrated charge=    16.00000161, expected=    16.00000000

     total energy              =     -48.19165425 Ry
     estimated scf accuracy    <       0.00000340 Ry

     iteration # 24     ecut=    60.00 Ry     beta= 0.70
     Davidson diagonalization with overlap
     ethr =  2.12E-08,  avg # of iterations =  2.0

     negative rho (up, down):  1.789E-04 0.000E+00

     total cpu time spent up to now is       16.8 secs

     WARNING: integrated charge=    16.00000164, expected=    16.00000000

     total energy              =     -48.19165568 Ry
     estimated scf accuracy    <       0.00000652 Ry

     iteration # 25     ecut=    60.00 Ry     beta= 0.70
     Davidson diagonalization with overlap
     ethr =  2.12E-08,  avg # of iterations =  2.8

     negative rho (up, down):  1.792E-04 0.000E+00

     total cpu time spent up to now is       17.1 secs

     WARNING: integrated charge=    16.00000164, expected=    16.00000000

     total energy              =     -48.19165595 Ry
     estimated scf accuracy    <       0.00000487 Ry

     iteration # 26     ecut=    60.00 Ry     beta= 0.70
     Davidson diagonalization with overlap
     ethr =  2.12E-08,  avg # of iterations =  1.0

     negative rho (up, down):  1.783E-04 0.000E+00

     total cpu time spent up to now is       17.3 secs

     WARNING: integrated charge=    16.00000164, expected=    16.00000000

     total energy              =     -48.19165717 Ry
     estimated scf accuracy    <       0.00000372 Ry

     iteration # 27     ecut=    60.00 Ry     beta= 0.70
     Davidson diagonalization with overlap
     ethr =  2.12E-08,  avg # of iterations =  1.3

     negative rho (up, down):  1.779E-04 0.000E+00

     total cpu time spent up to now is       17.6 secs

     WARNING: integrated charge=    16.00000164, expected=    16.00000000

     total energy              =     -48.19165778 Ry
     estimated scf accuracy    <       0.00000548 Ry

     iteration # 28     ecut=    60.00 Ry     beta= 0.70
     Davidson diagonalization with overlap
     ethr =  2.12E-08,  avg # of iterations =  1.0

     negative rho (up, down):  1.777E-04 0.000E+00

     total cpu time spent up to now is       17.8 secs

     WARNING: integrated charge=    16.00000164, expected=    16.00000000

     total energy              =     -48.19166005 Ry
     estimated scf accuracy    <       0.00000623 Ry

     iteration # 29     ecut=    60.00 Ry     beta= 0.70
     Davidson diagonalization with overlap
     ethr =  2.12E-08,  avg # of iterations =  2.1

     negative rho (up, down):  1.789E-04 0.000E+00

     total cpu time spent up to now is       18.0 secs

     WARNING: integrated charge=    16.00000164, expected=    16.00000000

     total energy              =     -48.19165718 Ry
     estimated scf accuracy    <       0.00001059 Ry

     iteration # 30     ecut=    60.00 Ry     beta= 0.70
     Davidson diagonalization with overlap
     ethr =  2.12E-08,  avg # of iterations =  1.0

     negative rho (up, down):  1.781E-04 0.000E+00

     total cpu time spent up to now is       18.3 secs

     WARNING: integrated charge=    16.00000163, expected=    16.00000000

     total energy              =     -48.19165453 Ry
     estimated scf accuracy    <       0.00000600 Ry

     iteration # 31     ecut=    60.00 Ry     beta= 0.70
     Davidson diagonalization with overlap
     ethr =  2.12E-08,  avg # of iterations =  2.4

     negative rho (up, down):  1.780E-04 0.000E+00

     total cpu time spent up to now is       18.5 secs

     WARNING: integrated charge=    16.00000163, expected=    16.00000000

     total energy              =     -48.19165430 Ry
     estimated scf accuracy    <       0.00000131 Ry

     iteration # 32     ecut=    60.00 Ry     beta= 0.70
     Davidson diagonalization with overlap
     ethr =  8.17E-09,  avg # of iterations =  3.6

     negative rho (up, down):  1.782E-04 0.000E+00

     total cpu time spent up to now is       18.8 secs

     WARNING: integrated charge=    16.00000163, expected=    16.00000000

     total energy              =     -48.19165460 Ry
     estimated scf accuracy    <       0.00000008 Ry

     iteration # 33     ecut=    60.00 Ry     beta= 0.70
     Davidson diagonalization with overlap
     ethr =  5.12E-10,  avg # of iterations =  7.2

     negative rho (up, down):  1.783E-04 0.000E+00

     total cpu time spent up to now is       19.2 secs

     WARNING: integrated charge=    16.00000163, expected=    16.00000000

     total energy              =     -48.19165475 Ry
     estimated scf accuracy    <       0.00000003 Ry

     iteration # 34     ecut=    60.00 Ry     beta= 0.70
     Davidson diagonalization with overlap
     ethr =  2.06E-10,  avg # of iterations =  2.7

     negative rho (up, down):  1.783E-04 0.000E+00

     total cpu time spent up to now is       19.5 secs

     End of self-consistent calculation

          k = 0.0000 0.0000 0.0000 (  5565 PWs)   bands (ev):

   -20.0775 -19.9703  -8.5140  -7.7367  -3.7250  -3.7250  -3.7193  -3.7193
     2.1862   2.4790   3.2033   4.3904

          k = 0.0000 0.1443 0.0000 (  5582 PWs)   bands (ev):

   -19.7099 -19.6054  -8.0697  -7.3046  -5.0825  -5.0671  -4.4139  -4.4028
     2.6895   2.9840   3.7139   4.8978

          k = 0.0000 0.2887 0.0000 (  5566 PWs)   bands (ev):

   -18.6172 -18.5203  -8.0491  -8.0161  -6.7648  -6.0416  -5.7016  -5.6863
     4.1963   4.4888   5.2452   6.3797

          k = 0.0000 0.4330 0.0000 (  5594 PWs)   bands (ev):

   -16.8392 -16.7547 -11.2949 -11.2441  -6.6969  -6.6796  -4.7434  -4.1268
     3.0712   3.4572   6.6793   6.9883

          k = 0.0000-0.5774 0.0000 (  5604 PWs)   bands (ev):

   -14.8667 -14.8274 -13.7661 -13.7367  -7.0555  -7.0377  -3.0505  -2.7717
     1.0447   1.3273   6.9382   7.0822

          k = 0.1250 0.2165 0.0000 (  5559 PWs)   bands (ev):

   -18.9798 -18.8804  -7.1938  -6.8627  -6.8485  -6.4551  -5.7789  -5.7690
     3.6957   3.9919   4.7355   5.9109

          k = 0.1250 0.3608 0.0000 (  5578 PWs)   bands (ev):

   -17.5433 -17.4537  -9.6234  -9.5865  -7.2779  -7.2560  -5.5082  -4.8356
     4.5225   4.7843   5.7007   6.0048

          k = 0.1250 0.5052 0.0000 (  5571 PWs)   bands (ev):

   -15.4905 -15.4174 -12.5888 -12.5347  -8.0411  -8.0146  -3.3380  -2.8624
     1.5545   1.8739   8.4442   8.5806

          k = 0.2500 0.4330 0.0000 (  5528 PWs)   bands (ev):

   -15.8137 -15.7366 -11.1365 -11.1106  -9.5089  -9.4901  -3.5489  -2.9818
     2.1560   2.3881   8.1665   8.3966

          k = 0.2500 0.5774 0.0000 (  5540 PWs)   bands (ev):

   -13.9229 -13.8874 -13.0081 -12.9939 -10.2926 -10.2591  -1.7113  -1.4438
     0.4042   0.4511  10.2907  10.4012

     the Fermi energy is    -0.3418 ev

     WARNING: integrated charge=    16.00000163, expected=    16.00000000

!    total energy              =     -48.19165475 Ry
     estimated scf accuracy    <          9.1E-10 Ry
     smearing contrib. (-TS)   =       0.00000002 Ry
     internal energy E=F+TS    =     -48.19165478 Ry

     The total energy is F=E-TS. E is the sum of the following terms:
     one-electron contribution =    -523.36363535 Ry
     hartree contribution      =     265.38762080 Ry
     xc contribution           =     -17.02168298 Ry
     ewald contribution        =     226.80604275 Ry

     convergence has been achieved in  34 iterations

     negative rho (up, down):  1.783E-04 0.000E+00

     Forces acting on atoms (cartesian axes, Ry/au):

     atom    1 type  1   force =     0.00000000    0.00000000   -0.00043154
     atom    2 type  1   force =     0.00000000    0.00000000   -0.00081511
     atom    3 type  1   force =     0.00000000    0.00000000    0.00043154
     atom    4 type  1   force =     0.00000000    0.00000000    0.00081511

     Total force =     0.001304     Total SCF correction =     0.000096


     Computing stress (Cartesian axis) and pressure


     negative rho (up, down):  1.783E-04 0.000E+00
          total   stress  (Ry/bohr**3)                   (kbar)     P=       10.98
   0.00010827   0.00000000  -0.00000000           15.93        0.00       -0.00
   0.00000000   0.00010827  -0.00000000            0.00       15.93       -0.00
   0.00000000   0.00000000   0.00000740            0.00        0.00        1.09


     BFGS Geometry Optimization
     Energy error            =      0.0E+00 Ry
     Gradient error          =      8.2E-04 Ry/Bohr
     Cell gradient error     =      1.6E+01 kbar

     number of scf cycles    =   1
     number of bfgs steps    =   0

     enthalpy           new  =     -48.1916547534 Ry

     new trust radius        =       0.0144200136 bohr
     new conv_thr            =       0.0000000010 Ry

     new unit-cell volume =    713.43292 a.u.^3 (   105.71985 Ang^3 )
     density =      0.75461 g/cm^3

CELL_PARAMETERS (alat=  4.65610675)
   1.002706656   0.000000000   0.000000000
  -0.501353328   0.868369436   0.000000000
   0.000000000   0.000000000   8.117194158

ATOMIC_POSITIONS (crystal)
C             0.0000000000        0.0000000000        0.4124885820
C             0.3333333330        0.6666666660        0.4124784331
C             0.0000000000        0.0000000000        0.5875114180
C             0.6666666660        0.3333333330        0.5875215669



     Writing config-only to output data dir ../tmp/gr.save/
     NEW-OLD atomic charge density approx. for the potential

     Check: negative core charge=   -0.000003

     negative rho (up, down):  1.696E-04 0.000E+00
     extrapolated charge   16.08626, renormalised to   16.00000

     total cpu time spent up to now is       20.3 secs

     Self-consistent Calculation

     iteration #  1     ecut=    60.00 Ry     beta= 0.70
     Davidson diagonalization with overlap
     c_bands:  3 eigenvalues not converged
     c_bands:  3 eigenvalues not converged
     c_bands:  1 eigenvalues not converged
     c_bands:  4 eigenvalues not converged
     c_bands:  2 eigenvalues not converged
     c_bands:  2 eigenvalues not converged
     c_bands:  2 eigenvalues not converged
     ethr =  1.00E-06,  avg # of iterations = 18.9

     negative rho (up, down):  5.745E-08 0.000E+00

     total cpu time spent up to now is       21.2 secs

     total energy              =     -48.17562539 Ry
     estimated scf accuracy    <       0.01039971 Ry

     iteration #  2     ecut=    60.00 Ry     beta= 0.70
     Davidson diagonalization with overlap
     c_bands:  1 eigenvalues not converged
     ethr =  6.50E-05,  avg # of iterations = 14.0

     negative rho (up, down):  2.037E-07 0.000E+00

     total cpu time spent up to now is       21.8 secs

     total energy              =     -48.18984218 Ry
     estimated scf accuracy    <       0.03701965 Ry

     iteration #  3     ecut=    60.00 Ry     beta= 0.70
     Davidson diagonalization with overlap
     ethr =  6.50E-05,  avg # of iterations =  5.6

     negative rho (up, down):  7.197E-07 0.000E+00

     total cpu time spent up to now is       22.1 secs

     total energy              =     -48.19142187 Ry
     estimated scf accuracy    <       0.00572685 Ry

     iteration #  4     ecut=    60.00 Ry     beta= 0.70
     Davidson diagonalization with overlap
     ethr =  3.58E-05,  avg # of iterations =  4.1

     negative rho (up, down):  2.791E-06 0.000E+00

     total cpu time spent up to now is       22.3 secs

     total energy              =     -48.19155743 Ry
     estimated scf accuracy    <       0.00165735 Ry

     iteration #  5     ecut=    60.00 Ry     beta= 0.70
     Davidson diagonalization with overlap
     ethr =  1.04E-05,  avg # of iterations =  4.7

     negative rho (up, down):  3.573E-06 0.000E+00

     total cpu time spent up to now is       22.6 secs

     total energy              =     -48.19182190 Ry
     estimated scf accuracy    <       0.00051643 Ry

     iteration #  6     ecut=    60.00 Ry     beta= 0.70
     Davidson diagonalization with overlap
     c_bands:  1 eigenvalues not converged
     c_bands:  1 eigenvalues not converged
     ethr =  3.23E-06,  avg # of iterations =  8.8

     negative rho (up, down):  3.538E-06 0.000E+00

     total cpu time spent up to now is       22.9 secs

     total energy              =     -48.19192789 Ry
     estimated scf accuracy    <       0.00030379 Ry

     iteration #  7     ecut=    60.00 Ry     beta= 0.70
     Davidson diagonalization with overlap
     ethr =  1.90E-06,  avg # of iterations =  2.5

     negative rho (up, down):  4.530E-06 0.000E+00

     total cpu time spent up to now is       23.2 secs

     total energy              =     -48.19193658 Ry
     estimated scf accuracy    <       0.00027935 Ry

     iteration #  8     ecut=    60.00 Ry     beta= 0.70
     Davidson diagonalization with overlap
     ethr =  1.75E-06,  avg # of iterations =  1.1

     negative rho (up, down):  3.102E-05 0.000E+00

     total cpu time spent up to now is       23.4 secs

     WARNING: integrated charge=    16.00000171, expected=    16.00000000

     total energy              =     -48.19183115 Ry
     estimated scf accuracy    <       0.00023690 Ry

     iteration #  9     ecut=    60.00 Ry     beta= 0.70
     Davidson diagonalization with overlap
     c_bands:  1 eigenvalues not converged
     ethr =  1.48E-06,  avg # of iterations =  8.0

     negative rho (up, down):  3.103E-05 0.000E+00

     total cpu time spent up to now is       23.8 secs

     WARNING: integrated charge=    16.00000171, expected=    16.00000000

     total energy              =     -48.19191431 Ry
     estimated scf accuracy    <       0.00001120 Ry

     iteration # 10     ecut=    60.00 Ry     beta= 0.70
     Davidson diagonalization with overlap
     ethr =  7.00E-08,  avg # of iterations =  6.2

     negative rho (up, down):  1.598E-04 0.000E+00

     total cpu time spent up to now is       24.2 secs

     WARNING: integrated charge=    16.00000188, expected=    16.00000000

     total energy              =     -48.19197933 Ry
     estimated scf accuracy    <       0.00003428 Ry

     iteration # 11     ecut=    60.00 Ry     beta= 0.70
     Davidson diagonalization with overlap
     c_bands:  1 eigenvalues not converged
     ethr =  7.00E-08,  avg # of iterations =  8.8

     negative rho (up, down):  1.516E-04 0.000E+00

     total cpu time spent up to now is       24.6 secs

     WARNING: integrated charge=    16.00000185, expected=    16.00000000

     total energy              =     -48.19209851 Ry
     estimated scf accuracy    <       0.00026376 Ry

     iteration # 12     ecut=    60.00 Ry     beta= 0.70
     Davidson diagonalization with overlap
     ethr =  7.00E-08,  avg # of iterations =  5.0

     negative rho (up, down):  1.597E-04 0.000E+00

     total cpu time spent up to now is       24.9 secs

     WARNING: integrated charge=    16.00000186, expected=    16.00000000

     total energy              =     -48.19208189 Ry
     estimated scf accuracy    <       0.00063740 Ry

     iteration # 13     ecut=    60.00 Ry     beta= 0.70
     Davidson diagonalization with overlap
     ethr =  7.00E-08,  avg # of iterations =  1.2

     negative rho (up, down):  1.608E-04 0.000E+00

     total cpu time spent up to now is       25.1 secs

     WARNING: integrated charge=    16.00000186, expected=    16.00000000

     total energy              =     -48.19209137 Ry
     estimated scf accuracy    <       0.00055171 Ry

     iteration # 14     ecut=    60.00 Ry     beta= 0.70
     Davidson diagonalization with overlap
     ethr =  7.00E-08,  avg # of iterations =  1.0

     negative rho (up, down):  1.567E-04 0.000E+00

     total cpu time spent up to now is       25.4 secs

     WARNING: integrated charge=    16.00000183, expected=    16.00000000

     total energy              =     -48.19221351 Ry
     estimated scf accuracy    <       0.00057035 Ry

     iteration # 15     ecut=    60.00 Ry     beta= 0.70
     Davidson diagonalization with overlap
     ethr =  7.00E-08,  avg # of iterations =  4.0

     negative rho (up, down):  1.601E-04 0.000E+00

     total cpu time spent up to now is       25.7 secs

     WARNING: integrated charge=    16.00000191, expected=    16.00000000

     total energy              =     -48.19172560 Ry
     estimated scf accuracy    <       0.00100178 Ry

     iteration # 16     ecut=    60.00 Ry     beta= 0.70
     Davidson diagonalization with overlap
     ethr =  7.00E-08,  avg # of iterations =  7.6

     negative rho (up, down):  1.737E-04 0.000E+00

     total cpu time spent up to now is       26.1 secs

     WARNING: integrated charge=    16.00000192, expected=    16.00000000

     total energy              =     -48.19192715 Ry
     estimated scf accuracy    <       0.00000100 Ry

     iteration # 17     ecut=    60.00 Ry     beta= 0.70
     Davidson diagonalization with overlap
     ethr =  6.27E-09,  avg # of iterations =  5.5

     negative rho (up, down):  1.797E-04 0.000E+00

     total cpu time spent up to now is       26.5 secs

     WARNING: integrated charge=    16.00000193, expected=    16.00000000

     total energy              =     -48.19193820 Ry
     estimated scf accuracy    <       0.00000675 Ry

     iteration # 18     ecut=    60.00 Ry     beta= 0.70
     Davidson diagonalization with overlap
     ethr =  6.27E-09,  avg # of iterations =  5.9

     negative rho (up, down):  1.635E-04 0.000E+00

     total cpu time spent up to now is       26.9 secs

     WARNING: integrated charge=    16.00000191, expected=    16.00000000

     total energy              =     -48.19191010 Ry
     estimated scf accuracy    <       0.00005713 Ry

     iteration # 19     ecut=    60.00 Ry     beta= 0.70
     Davidson diagonalization with overlap
     ethr =  6.27E-09,  avg # of iterations =  7.0

     negative rho (up, down):  1.728E-04 0.000E+00

     total cpu time spent up to now is       27.3 secs

     WARNING: integrated charge=    16.00000191, expected=    16.00000000

     total energy              =     -48.19192593 Ry
     estimated scf accuracy    <       0.00000441 Ry

     iteration # 20     ecut=    60.00 Ry     beta= 0.70
     Davidson diagonalization with overlap
     ethr =  6.27E-09,  avg # of iterations =  3.8

     negative rho (up, down):  1.760E-04 0.000E+00

     total cpu time spent up to now is       27.6 secs

     WARNING: integrated charge=    16.00000192, expected=    16.00000000

     total energy              =     -48.19192615 Ry
     estimated scf accuracy    <       0.00000050 Ry

     iteration # 21     ecut=    60.00 Ry     beta= 0.70
     Davidson diagonalization with overlap
     ethr =  3.10E-09,  avg # of iterations =  3.2

     negative rho (up, down):  1.776E-04 0.000E+00

     total cpu time spent up to now is       27.8 secs

     WARNING: integrated charge=    16.00000192, expected=    16.00000000

     total energy              =     -48.19192629 Ry
     estimated scf accuracy    <          6.2E-09 Ry

     iteration # 22     ecut=    60.00 Ry     beta= 0.70
     Davidson diagonalization with overlap
     ethr =  3.85E-11,  avg # of iterations = 10.7

     negative rho (up, down):  1.774E-04 0.000E+00

     total cpu time spent up to now is       28.4 secs

     WARNING: integrated charge=    16.00000192, expected=    16.00000000

     total energy              =     -48.19192633 Ry
     estimated scf accuracy    <       0.00000004 Ry

     iteration # 23     ecut=    60.00 Ry     beta= 0.70
     Davidson diagonalization with overlap
     ethr =  3.85E-11,  avg # of iterations =  2.2

     negative rho (up, down):  1.772E-04 0.000E+00

     total cpu time spent up to now is       28.7 secs

     WARNING: integrated charge=    16.00000192, expected=    16.00000000

     total energy              =     -48.19192632 Ry
     estimated scf accuracy    <       0.00000001 Ry

     iteration # 24     ecut=    60.00 Ry     beta= 0.70
     Davidson diagonalization with overlap
     ethr =  3.85E-11,  avg # of iterations =  4.2

     negative rho (up, down):  1.774E-04 0.000E+00

     total cpu time spent up to now is       29.0 secs

     WARNING: integrated charge=    16.00000192, expected=    16.00000000

     total energy              =     -48.19192633 Ry
     estimated scf accuracy    <       0.00000001 Ry

     iteration # 25     ecut=    60.00 Ry     beta= 0.70
     Davidson diagonalization with overlap
     ethr =  3.85E-11,  avg # of iterations =  2.6

     negative rho (up, down):  1.773E-04 0.000E+00

     total cpu time spent up to now is       29.2 secs

     End of self-consistent calculation

          k = 0.0000 0.0000 0.0000 (  5565 PWs)   bands (ev):

   -20.0486 -19.9412  -8.4965  -7.7178  -3.7626  -3.7626  -3.7569  -3.7569
     2.1766   2.4690   3.1982   4.3845

          k =-0.0000 0.1439 0.0000 (  5582 PWs)   bands (ev):

   -19.6828 -19.5780  -8.0551  -7.2886  -5.1160  -5.1004  -4.4458  -4.4346
     2.6773   2.9712   3.7061   4.8891

          k =-0.0000 0.2879 0.0000 (  5566 PWs)   bands (ev):

   -18.5954 -18.4982  -8.0709  -8.0376  -6.7589  -6.0345  -5.7237  -5.7082
     4.1758   4.4673   5.2289   6.3526

          k =-0.0000 0.4318 0.0000 (  5594 PWs)   bands (ev):

   -16.8267 -16.7419 -11.3015 -11.2504  -6.7118  -6.6944  -4.7515  -4.1341
     3.0122   3.3973   6.6421   6.9347

          k = 0.0000-0.5758 0.0000 (  5604 PWs)   bands (ev):

   -14.8741 -14.8346 -13.7505 -13.7209  -7.0680  -7.0500  -3.0716  -2.7919
     1.0051   1.2859   6.8219   6.9657

          k = 0.1247 0.2159 0.0000 (  5559 PWs)   bands (ev):

   -18.9562 -18.8565  -7.1850  -6.8914  -6.8771  -6.4450  -5.8000  -5.7900
     3.6780   3.9733   4.7221   5.8969

          k = 0.1247 0.3599 0.0000 (  5578 PWs)   bands (ev):

   -17.5268 -17.4370  -9.6402  -9.6031  -7.2900  -7.2679  -5.5107  -4.8372
     4.4489   4.7103   5.6719   5.9742

          k = 0.1247 0.5038 0.0000 (  5571 PWs)   bands (ev):

   -15.4865 -15.4132 -12.5885 -12.5342  -8.0494  -8.0227  -3.3563  -2.8802
     1.5070   1.8252   8.3288   8.4779

          k = 0.2493 0.4318 0.0000 (  5528 PWs)   bands (ev):

   -15.8066 -15.7292 -11.1533 -11.1271  -9.5028  -9.4839  -3.5652  -2.9975
     2.0990   2.3317   8.1239   8.3522

          k = 0.2493 0.5758 0.0000 (  5540 PWs)   bands (ev):

   -13.9325 -13.8968 -13.0075 -12.9935 -10.2834 -10.2501  -1.7413  -1.4730
     0.3616   0.4100  10.2345  10.3459

     the Fermi energy is    -0.3778 ev

     WARNING: integrated charge=    16.00000192, expected=    16.00000000

!    total energy              =     -48.19192633 Ry
     estimated scf accuracy    <          9.1E-10 Ry
     smearing contrib. (-TS)   =       0.00000003 Ry
     internal energy E=F+TS    =     -48.19192636 Ry

     The total energy is F=E-TS. E is the sum of the following terms:
     one-electron contribution =    -520.43351054 Ry
     hartree contribution      =     263.90388753 Ry
     xc contribution           =     -16.99802075 Ry
     ewald contribution        =     225.33571740 Ry

     convergence has been achieved in  25 iterations

     negative rho (up, down):  1.773E-04 0.000E+00

     Forces acting on atoms (cartesian axes, Ry/au):

     atom    1 type  1   force =     0.00000000    0.00000000   -0.00053099
     atom    2 type  1   force =    -0.00000000   -0.00000000   -0.00066749
     atom    3 type  1   force =    -0.00000000   -0.00000000    0.00053099
     atom    4 type  1   force =     0.00000000    0.00000000    0.00066749

     Total force =     0.001206     Total SCF correction =     0.000130
     SCF correction compared to forces is large: reduce conv_thr to get better values


     Computing stress (Cartesian axis) and pressure


     negative rho (up, down):  1.773E-04 0.000E+00
          total   stress  (Ry/bohr**3)                   (kbar)     P=        3.53
   0.00003246  -0.00000000  -0.00000000            4.77       -0.00       -0.00
  -0.00000000   0.00003246  -0.00000000           -0.00        4.77       -0.00
  -0.00000000  -0.00000000   0.00000710           -0.00       -0.00        1.04

     Energy error            =      2.7E-04 Ry
     Gradient error          =      6.7E-04 Ry/Bohr
     Cell gradient error     =      4.8E+00 kbar

     number of scf cycles    =   2
     number of bfgs steps    =   1

     enthalpy           old  =     -48.1916547534 Ry
     enthalpy           new  =     -48.1919263273 Ry

     CASE: enthalpy          _new < enthalpy          _old

     new trust radius        =       0.0062673028 bohr
     new conv_thr            =            6.7E-11 Ry

     new unit-cell volume =    715.10791 a.u.^3 (   105.96806 Ang^3 )
     density =      0.75284 g/cm^3

CELL_PARAMETERS (alat=  4.65610675)
   1.003883037   0.000000000   0.000000000
  -0.501941518   0.869388212   0.000000000
   0.000000000   0.000000000   8.117194158

ATOMIC_POSITIONS (crystal)
C             0.0000000000        0.0000000000        0.4124683853
C             0.3333333330        0.6666666660        0.4124530201
C            -0.0000000000       -0.0000000000        0.5875316147
C             0.6666666660        0.3333333330        0.5875469799



     Writing config-only to output data dir ../tmp/gr.save/
     NEW-OLD atomic charge density approx. for the potential

     Check: negative core charge=   -0.000003

     negative rho (up, down):  1.734E-04 0.000E+00
     extrapolated charge   16.03748, renormalised to   16.00000

     total cpu time spent up to now is       30.0 secs

     Self-consistent Calculation

     iteration #  1     ecut=    60.00 Ry     beta= 0.70
     Davidson diagonalization with overlap
     c_bands:  1 eigenvalues not converged
     c_bands:  2 eigenvalues not converged
     c_bands:  2 eigenvalues not converged
     c_bands:  2 eigenvalues not converged
     c_bands:  1 eigenvalues not converged
     ethr =  1.00E-06,  avg # of iterations = 15.9

     negative rho (up, down):  1.686E-04 0.000E+00

     total cpu time spent up to now is       30.7 secs

     total energy              =     -48.19001713 Ry
     estimated scf accuracy    <       0.00143376 Ry

     iteration #  2     ecut=    60.00 Ry     beta= 0.70
     Davidson diagonalization with overlap
     c_bands:  1 eigenvalues not converged
     c_bands:  2 eigenvalues not converged
     c_bands:  2 eigenvalues not converged
     ethr =  8.96E-06,  avg # of iterations = 14.5

     negative rho (up, down):  1.709E-04 0.000E+00

     total cpu time spent up to now is       31.2 secs

     total energy              =     -48.19165965 Ry
     estimated scf accuracy    <       0.00545587 Ry

     iteration #  3     ecut=    60.00 Ry     beta= 0.70
     Davidson diagonalization with overlap
     ethr =  8.96E-06,  avg # of iterations =  6.1

     negative rho (up, down):  1.722E-04 0.000E+00

     total cpu time spent up to now is       31.5 secs

     WARNING: integrated charge=    16.00000173, expected=    16.00000000

     total energy              =     -48.19189612 Ry
     estimated scf accuracy    <       0.00080805 Ry

     iteration #  4     ecut=    60.00 Ry     beta= 0.70
     Davidson diagonalization with overlap
     ethr =  5.05E-06,  avg # of iterations =  4.1

     negative rho (up, down):  1.741E-04 0.000E+00

     total cpu time spent up to now is       31.8 secs

     WARNING: integrated charge=    16.00000186, expected=    16.00000000

     total energy              =     -48.19190749 Ry
     estimated scf accuracy    <       0.00021795 Ry

     iteration #  5     ecut=    60.00 Ry     beta= 0.70
     Davidson diagonalization with overlap
     ethr =  1.36E-06,  avg # of iterations =  5.9

     negative rho (up, down):  1.741E-04 0.000E+00

     total cpu time spent up to now is       32.1 secs

     WARNING: integrated charge=    16.00000186, expected=    16.00000000

     total energy              =     -48.19194396 Ry
     estimated scf accuracy    <       0.00005857 Ry

     iteration #  6     ecut=    60.00 Ry     beta= 0.70
     Davidson diagonalization with overlap
     ethr =  3.66E-07,  avg # of iterations =  3.7

     negative rho (up, down):  1.752E-04 0.000E+00

     total cpu time spent up to now is       32.4 secs

     WARNING: integrated charge=    16.00000196, expected=    16.00000000

     total energy              =     -48.19193515 Ry
     estimated scf accuracy    <       0.00003575 Ry

     iteration #  7     ecut=    60.00 Ry     beta= 0.70
     Davidson diagonalization with overlap
     ethr =  2.23E-07,  avg # of iterations =  5.9

     negative rho (up, down):  1.752E-04 0.000E+00

     total cpu time spent up to now is       32.7 secs

     WARNING: integrated charge=    16.00000196, expected=    16.00000000

     total energy              =     -48.19195726 Ry
     estimated scf accuracy    <       0.00001015 Ry

     iteration #  8     ecut=    60.00 Ry     beta= 0.70
     Davidson diagonalization with overlap
     ethr =  6.34E-08,  avg # of iterations =  2.6

     negative rho (up, down):  1.753E-04 0.000E+00

     total cpu time spent up to now is       32.9 secs

     WARNING: integrated charge=    16.00000196, expected=    16.00000000

     total energy              =     -48.19195882 Ry
     estimated scf accuracy    <       0.00001146 Ry

     iteration #  9     ecut=    60.00 Ry     beta= 0.70
     Davidson diagonalization with overlap
     ethr =  6.34E-08,  avg # of iterations =  1.0

     negative rho (up, down):  1.755E-04 0.000E+00

     total cpu time spent up to now is       33.2 secs

     WARNING: integrated charge=    16.00000198, expected=    16.00000000

     total energy              =     -48.19195843 Ry
     estimated scf accuracy    <       0.00001144 Ry

     iteration # 10     ecut=    60.00 Ry     beta= 0.70
     Davidson diagonalization with overlap
     ethr =  6.34E-08,  avg # of iterations =  1.0

     negative rho (up, down):  1.762E-04 0.000E+00

     total cpu time spent up to now is       33.4 secs

     WARNING: integrated charge=    16.00000204, expected=    16.00000000

     total energy              =     -48.19196125 Ry
     estimated scf accuracy    <       0.00001021 Ry

     iteration # 11     ecut=    60.00 Ry     beta= 0.70
     Davidson diagonalization with overlap
     ethr =  6.34E-08,  avg # of iterations =  1.0

     negative rho (up, down):  1.758E-04 0.000E+00

     total cpu time spent up to now is       33.6 secs

     WARNING: integrated charge=    16.00000204, expected=    16.00000000

     total energy              =     -48.19196478 Ry
     estimated scf accuracy    <       0.00001780 Ry

     iteration # 12     ecut=    60.00 Ry     beta= 0.70
     Davidson diagonalization with overlap
     ethr =  6.34E-08,  avg # of iterations =  1.0

     negative rho (up, down):  1.758E-04 0.000E+00

     total cpu time spent up to now is       33.8 secs

     WARNING: integrated charge=    16.00000204, expected=    16.00000000

     total energy              =     -48.19196463 Ry
     estimated scf accuracy    <       0.00002621 Ry

     iteration # 13     ecut=    60.00 Ry     beta= 0.70
     Davidson diagonalization with overlap
     ethr =  6.34E-08,  avg # of iterations =  1.0

     negative rho (up, down):  1.756E-04 0.000E+00

     total cpu time spent up to now is       34.1 secs

     WARNING: integrated charge=    16.00000204, expected=    16.00000000

     total energy              =     -48.19196795 Ry
     estimated scf accuracy    <       0.00002571 Ry

     iteration # 14     ecut=    60.00 Ry     beta= 0.70
     Davidson diagonalization with overlap
     ethr =  6.34E-08,  avg # of iterations =  1.1

     negative rho (up, down):  1.756E-04 0.000E+00

     total cpu time spent up to now is       34.3 secs

     WARNING: integrated charge=    16.00000204, expected=    16.00000000

     total energy              =     -48.19196522 Ry
     estimated scf accuracy    <       0.00003610 Ry

     iteration # 15     ecut=    60.00 Ry     beta= 0.70
     Davidson diagonalization with overlap
     ethr =  6.34E-08,  avg # of iterations =  1.0

     negative rho (up, down):  1.755E-04 0.000E+00

     total cpu time spent up to now is       34.5 secs

     WARNING: integrated charge=    16.00000203, expected=    16.00000000

     total energy              =     -48.19196619 Ry
     estimated scf accuracy    <       0.00002978 Ry

     iteration # 16     ecut=    60.00 Ry     beta= 0.70
     Davidson diagonalization with overlap
     ethr =  6.34E-08,  avg # of iterations =  1.0

     negative rho (up, down):  1.746E-04 0.000E+00

     total cpu time spent up to now is       34.8 secs

     WARNING: integrated charge=    16.00000204, expected=    16.00000000

     total energy              =     -48.19196263 Ry
     estimated scf accuracy    <       0.00003274 Ry

     iteration # 17     ecut=    60.00 Ry     beta= 0.70
     Davidson diagonalization with overlap
     ethr =  6.34E-08,  avg # of iterations =  1.0

     negative rho (up, down):  1.756E-04 0.000E+00

     total cpu time spent up to now is       35.0 secs

     WARNING: integrated charge=    16.00000205, expected=    16.00000000

     total energy              =     -48.19195595 Ry
     estimated scf accuracy    <       0.00002475 Ry

     iteration # 18     ecut=    60.00 Ry     beta= 0.70
     Davidson diagonalization with overlap
     ethr =  6.34E-08,  avg # of iterations =  1.6

     negative rho (up, down):  1.754E-04 0.000E+00

     total cpu time spent up to now is       35.2 secs

     WARNING: integrated charge=    16.00000204, expected=    16.00000000

     total energy              =     -48.19195794 Ry
     estimated scf accuracy    <       0.00000840 Ry

     iteration # 19     ecut=    60.00 Ry     beta= 0.70
     Davidson diagonalization with overlap
     ethr =  5.25E-08,  avg # of iterations =  1.0

     negative rho (up, down):  1.761E-04 0.000E+00

     total cpu time spent up to now is       35.5 secs

     WARNING: integrated charge=    16.00000205, expected=    16.00000000

     total energy              =     -48.19195566 Ry
     estimated scf accuracy    <       0.00001032 Ry

     iteration # 20     ecut=    60.00 Ry     beta= 0.70
     Davidson diagonalization with overlap
     ethr =  5.25E-08,  avg # of iterations =  1.2

     negative rho (up, down):  1.771E-04 0.000E+00

     total cpu time spent up to now is       35.7 secs

     WARNING: integrated charge=    16.00000206, expected=    16.00000000

     total energy              =     -48.19195406 Ry
     estimated scf accuracy    <       0.00000388 Ry

     iteration # 21     ecut=    60.00 Ry     beta= 0.70
     Davidson diagonalization with overlap
     ethr =  2.43E-08,  avg # of iterations =  3.5

     negative rho (up, down):  1.772E-04 0.000E+00

     total cpu time spent up to now is       36.0 secs

     WARNING: integrated charge=    16.00000206, expected=    16.00000000

     total energy              =     -48.19195524 Ry
     estimated scf accuracy    <       0.00000001 Ry

     iteration # 22     ecut=    60.00 Ry     beta= 0.70
     Davidson diagonalization with overlap
     c_bands:  1 eigenvalues not converged
     c_bands:  1 eigenvalues not converged
     ethr =  8.71E-11,  avg # of iterations = 18.8

     negative rho (up, down):  1.771E-04 0.000E+00

     total cpu time spent up to now is       36.9 secs

     WARNING: integrated charge=    16.00000205, expected=    16.00000000

     total energy              =     -48.19195582 Ry
     estimated scf accuracy    <       0.00000046 Ry

     iteration # 23     ecut=    60.00 Ry     beta= 0.70
     Davidson diagonalization with overlap
     ethr =  8.71E-11,  avg # of iterations =  1.4

     negative rho (up, down):  1.770E-04 0.000E+00

     total cpu time spent up to now is       37.2 secs

     WARNING: integrated charge=    16.00000205, expected=    16.00000000

     total energy              =     -48.19195570 Ry
     estimated scf accuracy    <       0.00000038 Ry

     iteration # 24     ecut=    60.00 Ry     beta= 0.70
     Davidson diagonalization with overlap
     ethr =  8.71E-11,  avg # of iterations =  4.0

     negative rho (up, down):  1.770E-04 0.000E+00

     total cpu time spent up to now is       37.5 secs

     WARNING: integrated charge=    16.00000205, expected=    16.00000000

     total energy              =     -48.19195571 Ry
     estimated scf accuracy    <       0.00000006 Ry

     iteration # 25     ecut=    60.00 Ry     beta= 0.70
     Davidson diagonalization with overlap
     ethr =  8.71E-11,  avg # of iterations =  3.9

     negative rho (up, down):  1.770E-04 0.000E+00

     total cpu time spent up to now is       37.8 secs

     WARNING: integrated charge=    16.00000205, expected=    16.00000000

     total energy              =     -48.19195572 Ry
     estimated scf accuracy    <          3.6E-09 Ry

     iteration # 26     ecut=    60.00 Ry     beta= 0.70
     Davidson diagonalization with overlap
     ethr =  2.23E-11,  avg # of iterations =  4.7

     negative rho (up, down):  1.770E-04 0.000E+00

     total cpu time spent up to now is       38.1 secs

     WARNING: integrated charge=    16.00000205, expected=    16.00000000

     total energy              =     -48.19195572 Ry
     estimated scf accuracy    <          9.6E-11 Ry

     iteration # 27     ecut=    60.00 Ry     beta= 0.70
     Davidson diagonalization with overlap
     ethr =  6.00E-13,  avg # of iterations =  7.6

     negative rho (up, down):  1.770E-04 0.000E+00

     total cpu time spent up to now is       38.5 secs

     WARNING: integrated charge=    16.00000205, expected=    16.00000000

     total energy              =     -48.19195572 Ry
     estimated scf accuracy    <          2.6E-10 Ry

     iteration # 28     ecut=    60.00 Ry     beta= 0.70
     Davidson diagonalization with overlap
     ethr =  6.00E-13,  avg # of iterations =  4.0

     negative rho (up, down):  1.770E-04 0.000E+00

     total cpu time spent up to now is       38.8 secs

     WARNING: integrated charge=    16.00000205, expected=    16.00000000

     total energy              =     -48.19195572 Ry
     estimated scf accuracy    <          1.1E-10 Ry

     iteration # 29     ecut=    60.00 Ry     beta= 0.70
     Davidson diagonalization with overlap
     ethr =  6.00E-13,  avg # of iterations =  1.0

     negative rho (up, down):  1.770E-04 0.000E+00

     total cpu time spent up to now is       39.0 secs

     End of self-consistent calculation

          k = 0.0000 0.0000 0.0000 (  5565 PWs)   bands (ev):

   -20.0360 -19.9286  -8.4887  -7.7100  -3.7789  -3.7789  -3.7731  -3.7731
     2.1727   2.4649   3.1959   4.3822

          k =-0.0000 0.1438 0.0000 (  5582 PWs)   bands (ev):

   -19.6710 -19.5662  -8.0485  -7.2821  -5.1304  -5.1148  -4.4595  -4.4484
     2.6722   2.9659   3.7026   4.8856

          k =-0.0000 0.2876 0.0000 (  5566 PWs)   bands (ev):

   -18.5859 -18.4887  -8.0803  -8.0469  -6.7560  -6.0318  -5.7332  -5.7177
     4.1672   4.4583   5.2219   6.3319

          k =-0.0000 0.4313 0.0000 (  5594 PWs)   bands (ev):

   -16.8212 -16.7364 -11.3043 -11.2531  -6.7183  -6.7008  -4.7547  -4.1376
     2.9869   3.3711   6.6264   6.9013

          k = 0.0000-0.5751 0.0000 (  5604 PWs)   bands (ev):

   -14.8771 -14.8377 -13.7437 -13.7141  -7.0733  -7.0553  -3.0806  -2.8008
     0.9880   1.2678   6.7717   6.9153

          k = 0.1245 0.2157 0.0000 (  5559 PWs)   bands (ev):

   -18.9459 -18.8462  -7.1809  -6.9038  -6.8894  -6.4410  -5.8091  -5.7991
     3.6705   3.9656   4.7163   5.8910

          k = 0.1245 0.3594 0.0000 (  5578 PWs)   bands (ev):

   -17.5197 -17.4299  -9.6474  -9.6103  -7.2951  -7.2730  -5.5116  -4.8382
     4.4172   4.6781   5.6597   5.9614

          k = 0.1245 0.5032 0.0000 (  5571 PWs)   bands (ev):

   -15.4847 -15.4115 -12.5882 -12.5340  -8.0529  -8.0262  -3.3640  -2.8882
     1.4865   1.8039   8.2786   8.4309

          k = 0.2490 0.4313 0.0000 (  5528 PWs)   bands (ev):

   -15.8035 -15.7261 -11.1605 -11.1343  -9.5001  -9.4812  -3.5721  -3.0046
     2.0745   2.3071   8.1057   8.3333

          k = 0.2490 0.5751 0.0000 (  5540 PWs)   bands (ev):

   -13.9366 -13.9009 -13.0072 -12.9934 -10.2794 -10.2461  -1.7541  -1.4858
     0.3432   0.3921  10.2103  10.3218

     the Fermi energy is    -0.3934 ev

     WARNING: integrated charge=    16.00000205, expected=    16.00000000

!    total energy              =     -48.19195572 Ry
     estimated scf accuracy    <          9.8E-12 Ry
     smearing contrib. (-TS)   =       0.00000003 Ry
     internal energy E=F+TS    =     -48.19195575 Ry

     The total energy is F=E-TS. E is the sum of the following terms:
     one-electron contribution =    -519.10293339 Ry
     hartree contribution      =     263.23081702 Ry
     xc contribution           =     -16.98778042 Ry
     ewald contribution        =     224.66794104 Ry

     convergence has been achieved in  29 iterations

     negative rho (up, down):  1.770E-04 0.000E+00

     Forces acting on atoms (cartesian axes, Ry/au):

     atom    1 type  1   force =    -0.00000000    0.00000000   -0.00057454
     atom    2 type  1   force =    -0.00000000    0.00000000   -0.00057958
     atom    3 type  1   force =     0.00000000    0.00000000    0.00057454
     atom    4 type  1   force =     0.00000000    0.00000000    0.00057958

     Total force =     0.001154     Total SCF correction =     0.000012


     Computing stress (Cartesian axis) and pressure


     negative rho (up, down):  1.770E-04 0.000E+00
          total   stress  (Ry/bohr**3)                   (kbar)     P=        0.37
   0.00000023   0.00000000  -0.00000000            0.03        0.00       -0.00
   0.00000000   0.00000023  -0.00000000            0.00        0.03       -0.00
   0.00000000   0.00000000   0.00000710            0.00        0.00        1.04

     Energy error            =      2.9E-05 Ry
     Gradient error          =      5.8E-04 Ry/Bohr
     Cell gradient error     =      3.4E-02 kbar

     number of scf cycles    =   3
     number of bfgs steps    =   2

     enthalpy           old  =     -48.1919263273 Ry
     enthalpy           new  =     -48.1919557219 Ry

     CASE: enthalpy          _new < enthalpy          _old

     new trust radius        =       0.0006366636 bohr
     new conv_thr            =            2.9E-11 Ry

     new unit-cell volume =    715.17988 a.u.^3 (   105.97872 Ang^3 )
     density =      0.75276 g/cm^3

CELL_PARAMETERS (alat=  4.65610675)
   1.003933553   0.000000000   0.000000000
  -0.501966777   0.869431961   0.000000000
   0.000000000   0.000000000   8.117194158

ATOMIC_POSITIONS (crystal)
C             0.0000000000        0.0000000000        0.4124518703
C             0.3333333330        0.6666666660        0.4124361747
C            -0.0000000000       -0.0000000000        0.5875481297
C             0.6666666660        0.3333333330        0.5875638253



     Writing config-only to output data dir ../tmp/gr.save/
     NEW-OLD atomic charge density approx. for the potential

     Check: negative core charge=   -0.000003

     negative rho (up, down):  1.766E-04 0.000E+00
     extrapolated charge   16.00161, renormalised to   16.00000

     total cpu time spent up to now is       39.8 secs

     Self-consistent Calculation

     iteration #  1     ecut=    60.00 Ry     beta= 0.70
     Davidson diagonalization with overlap
     ethr =  1.00E-06,  avg # of iterations =  2.0

     Threshold (ethr) on eigenvalues was too large:
     Diagonalizing with lowered threshold

     Davidson diagonalization with overlap
     ethr =  3.23E-09,  avg # of iterations =  8.9

     negative rho (up, down):  1.766E-04 0.000E+00

     total cpu time spent up to now is       40.5 secs

     total energy              =     -48.19195262 Ry
     estimated scf accuracy    <       0.00000403 Ry

     iteration #  2     ecut=    60.00 Ry     beta= 0.70
     Davidson diagonalization with overlap
     ethr =  2.52E-08,  avg # of iterations =  4.0

     negative rho (up, down):  1.768E-04 0.000E+00

     total cpu time spent up to now is       40.9 secs

     total energy              =     -48.19195595 Ry
     estimated scf accuracy    <       0.00001370 Ry

     iteration #  3     ecut=    60.00 Ry     beta= 0.70
     Davidson diagonalization with overlap
     ethr =  2.52E-08,  avg # of iterations =  3.0

     negative rho (up, down):  1.769E-04 0.000E+00

     total cpu time spent up to now is       41.1 secs

     WARNING: integrated charge=    16.00000182, expected=    16.00000000

     total energy              =     -48.19195678 Ry
     estimated scf accuracy    <       0.00000149 Ry

     iteration #  4     ecut=    60.00 Ry     beta= 0.70
     Davidson diagonalization with overlap
     ethr =  9.34E-09,  avg # of iterations =  2.9

     negative rho (up, down):  1.770E-04 0.000E+00

     total cpu time spent up to now is       41.4 secs

     WARNING: integrated charge=    16.00000211, expected=    16.00000000

     total energy              =     -48.19195702 Ry
     estimated scf accuracy    <       0.00000013 Ry

     iteration #  5     ecut=    60.00 Ry     beta= 0.70
     Davidson diagonalization with overlap
     ethr =  8.34E-10,  avg # of iterations =  4.5

     negative rho (up, down):  1.770E-04 0.000E+00

     total cpu time spent up to now is       41.7 secs

     WARNING: integrated charge=    16.00000207, expected=    16.00000000

     total energy              =     -48.19195716 Ry
     estimated scf accuracy    <       0.00000004 Ry

     iteration #  6     ecut=    60.00 Ry     beta= 0.70
     Davidson diagonalization with overlap
     ethr =  2.51E-10,  avg # of iterations =  2.8

     negative rho (up, down):  1.770E-04 0.000E+00

     total cpu time spent up to now is       42.0 secs

     WARNING: integrated charge=    16.00000207, expected=    16.00000000

     total energy              =     -48.19195716 Ry
     estimated scf accuracy    <       0.00000003 Ry

     iteration #  7     ecut=    60.00 Ry     beta= 0.70
     Davidson diagonalization with overlap
     ethr =  1.72E-10,  avg # of iterations =  1.4

     negative rho (up, down):  1.771E-04 0.000E+00

     total cpu time spent up to now is       42.2 secs

     WARNING: integrated charge=    16.00000206, expected=    16.00000000

     total energy              =     -48.19195715 Ry
     estimated scf accuracy    <       0.00000002 Ry

     iteration #  8     ecut=    60.00 Ry     beta= 0.70
     Davidson diagonalization with overlap
     ethr =  9.50E-11,  avg # of iterations =  3.8

     negative rho (up, down):  1.771E-04 0.000E+00

     total cpu time spent up to now is       42.6 secs

     WARNING: integrated charge=    16.00000206, expected=    16.00000000

     total energy              =     -48.19195716 Ry
     estimated scf accuracy    <          6.7E-10 Ry

     iteration #  9     ecut=    60.00 Ry     beta= 0.70
     Davidson diagonalization with overlap
     ethr =  4.19E-12,  avg # of iterations =  8.9

     negative rho (up, down):  1.771E-04 0.000E+00

     total cpu time spent up to now is       43.1 secs

     WARNING: integrated charge=    16.00000206, expected=    16.00000000

     total energy              =     -48.19195716 Ry
     estimated scf accuracy    <          6.5E-10 Ry

     iteration # 10     ecut=    60.00 Ry     beta= 0.70
     Davidson diagonalization with overlap
     ethr =  4.05E-12,  avg # of iterations =  2.6

     negative rho (up, down):  1.771E-04 0.000E+00

     total cpu time spent up to now is       43.3 secs

     WARNING: integrated charge=    16.00000206, expected=    16.00000000

     total energy              =     -48.19195716 Ry
     estimated scf accuracy    <          2.8E-09 Ry

     iteration # 11     ecut=    60.00 Ry     beta= 0.70
     Davidson diagonalization with overlap
     ethr =  4.05E-12,  avg # of iterations =  1.8

     negative rho (up, down):  1.770E-04 0.000E+00

     total cpu time spent up to now is       43.6 secs

     WARNING: integrated charge=    16.00000206, expected=    16.00000000

     total energy              =     -48.19195716 Ry
     estimated scf accuracy    <          1.1E-09 Ry

     iteration # 12     ecut=    60.00 Ry     beta= 0.70
     Davidson diagonalization with overlap
     ethr =  4.05E-12,  avg # of iterations =  2.6

     negative rho (up, down):  1.770E-04 0.000E+00

     total cpu time spent up to now is       43.9 secs

     WARNING: integrated charge=    16.00000206, expected=    16.00000000

     total energy              =     -48.19195716 Ry
     estimated scf accuracy    <          8.8E-11 Ry

     iteration # 13     ecut=    60.00 Ry     beta= 0.70
     Davidson diagonalization with overlap
     ethr =  5.51E-13,  avg # of iterations =  4.7

     negative rho (up, down):  1.770E-04 0.000E+00

     total cpu time spent up to now is       44.2 secs

     End of self-consistent calculation

          k = 0.0000 0.0000 0.0000 (  5565 PWs)   bands (ev):

   -20.0353 -19.9281  -8.4880  -7.7100  -3.7795  -3.7795  -3.7737  -3.7737
     2.1726   2.4649   3.1952   4.3820

          k =-0.0000 0.1438 0.0000 (  5582 PWs)   bands (ev):

   -19.6703 -19.5657  -8.0479  -7.2822  -5.1310  -5.1153  -4.4601  -4.4489
     2.6720   2.9658   3.7019   4.8852

          k =-0.0000 0.2875 0.0000 (  5566 PWs)   bands (ev):

   -18.5854 -18.4883  -8.0806  -8.0473  -6.7555  -6.0320  -5.7336  -5.7180
     4.1668   4.4581   5.2210   6.3303

          k =-0.0000 0.4313 0.0000 (  5594 PWs)   bands (ev):

   -16.8209 -16.7362 -11.3043 -11.2532  -6.7185  -6.7010  -4.7545  -4.1380
     2.9860   3.3699   6.6255   6.8998

          k = 0.0000-0.5751 0.0000 (  5604 PWs)   bands (ev):

   -14.8772 -14.8378 -13.7434 -13.7138  -7.0735  -7.0555  -3.0807  -2.8012
     0.9873   1.2669   6.7697   6.9131

          k = 0.1245 0.2157 0.0000 (  5559 PWs)   bands (ev):

   -18.9454 -18.8458  -7.1803  -6.9043  -6.8899  -6.4412  -5.8095  -5.7994
     3.6702   3.9654   4.7155   5.8905

          k = 0.1245 0.3594 0.0000 (  5578 PWs)   bands (ev):

   -17.5193 -17.4296  -9.6476  -9.6105  -7.2953  -7.2732  -5.5113  -4.8385
     4.4160   4.6766   5.6592   5.9610

          k = 0.1245 0.5032 0.0000 (  5571 PWs)   bands (ev):

   -15.4846 -15.4114 -12.5881 -12.5340  -8.0530  -8.0263  -3.3640  -2.8887
     1.4858   1.8029   8.2765   8.4288

          k = 0.2490 0.4313 0.0000 (  5528 PWs)   bands (ev):

   -15.8032 -15.7260 -11.1607 -11.1346  -9.4999  -9.4810  -3.5720  -3.0052
     2.0736   2.3060   8.1049   8.3327

          k = 0.2490 0.5751 0.0000 (  5540 PWs)   bands (ev):

   -13.9367 -13.9010 -13.0071 -12.9934 -10.2791 -10.2459  -1.7545  -1.4864
     0.3425   0.3913  10.2093  10.3206

     the Fermi energy is    -0.3941 ev

     WARNING: integrated charge=    16.00000206, expected=    16.00000000

!    total energy              =     -48.19195716 Ry
     estimated scf accuracy    <          7.5E-12 Ry
     smearing contrib. (-TS)   =       0.00000003 Ry
     internal energy E=F+TS    =     -48.19195719 Ry

     The total energy is F=E-TS. E is the sum of the following terms:
     one-electron contribution =    -518.98035622 Ry
     hartree contribution      =     263.16918073 Ry
     xc contribution           =     -16.98732720 Ry
     ewald contribution        =     224.60654550 Ry

     convergence has been achieved in  13 iterations

     negative rho (up, down):  1.770E-04 0.000E+00

     Forces acting on atoms (cartesian axes, Ry/au):

     atom    1 type  1   force =     0.00000000   -0.00000000   -0.00057475
     atom    2 type  1   force =     0.00000000    0.00000000   -0.00057076
     atom    3 type  1   force =     0.00000000    0.00000000    0.00057475
     atom    4 type  1   force =    -0.00000000   -0.00000000    0.00057076

     Total force =     0.001146     Total SCF correction =     0.000000


     Computing stress (Cartesian axis) and pressure


     negative rho (up, down):  1.770E-04 0.000E+00
          total   stress  (Ry/bohr**3)                   (kbar)     P=        0.23
  -0.00000115  -0.00000000   0.00000000           -0.17       -0.00        0.00
  -0.00000000  -0.00000115   0.00000000           -0.00       -0.17        0.00
  -0.00000000  -0.00000000   0.00000701           -0.00       -0.00        1.03

     Energy error            =      1.4E-06 Ry
     Gradient error          =      5.7E-04 Ry/Bohr
     Cell gradient error     =      1.7E-01 kbar

     number of scf cycles    =   4
     number of bfgs steps    =   3

     enthalpy           old  =     -48.1919557219 Ry
     enthalpy           new  =     -48.1919571638 Ry

     CASE: enthalpy          _new < enthalpy          _old


     WARNING: bfgs curvature condition failed, Theta= 0.865
     new trust radius        =       0.0007003300 bohr
     new conv_thr            =            1.0E-11 Ry

     new unit-cell volume =    715.22228 a.u.^3 (   105.98501 Ang^3 )
     density =      0.75272 g/cm^3

CELL_PARAMETERS (alat=  4.65610675)
   1.003963310   0.000000000   0.000000000
  -0.501981655   0.869457731   0.000000000
   0.000000000   0.000000000   8.117194158

ATOMIC_POSITIONS (crystal)
C             0.0000000000        0.0000000000        0.4124335443
C             0.3333333330        0.6666666660        0.4124176448
C            -0.0000000000       -0.0000000000        0.5875664557
C             0.6666666660        0.3333333330        0.5875823552



     Writing config-only to output data dir ../tmp/gr.save/
     NEW-OLD atomic charge density approx. for the potential

     Check: negative core charge=   -0.000003

     negative rho (up, down):  1.768E-04 0.000E+00
     extrapolated charge   16.00095, renormalised to   16.00000

     total cpu time spent up to now is       45.0 secs

     Self-consistent Calculation

     iteration #  1     ecut=    60.00 Ry     beta= 0.70
     Davidson diagonalization with overlap
     ethr =  1.00E-06,  avg # of iterations =  2.0

     Threshold (ethr) on eigenvalues was too large:
     Diagonalizing with lowered threshold

     Davidson diagonalization with overlap
     ethr =  1.30E-09,  avg # of iterations = 10.6

     negative rho (up, down):  1.769E-04 0.000E+00

     total cpu time spent up to now is       45.8 secs

     total energy              =     -48.19195671 Ry
     estimated scf accuracy    <       0.00000204 Ry

     iteration #  2     ecut=    60.00 Ry     beta= 0.70
     Davidson diagonalization with overlap
     ethr =  1.28E-08,  avg # of iterations =  4.0

     negative rho (up, down):  1.770E-04 0.000E+00

     total cpu time spent up to now is       46.1 secs

     total energy              =     -48.19195805 Ry
     estimated scf accuracy    <       0.00000597 Ry

     iteration #  3     ecut=    60.00 Ry     beta= 0.70
     Davidson diagonalization with overlap
     ethr =  1.28E-08,  avg # of iterations =  2.9

     negative rho (up, down):  1.771E-04 0.000E+00

     total cpu time spent up to now is       46.3 secs

     WARNING: integrated charge=    16.00000189, expected=    16.00000000

     total energy              =     -48.19195847 Ry
     estimated scf accuracy    <       0.00000052 Ry

     iteration #  4     ecut=    60.00 Ry     beta= 0.70
     Davidson diagonalization with overlap
     ethr =  3.22E-09,  avg # of iterations =  3.4

     negative rho (up, down):  1.772E-04 0.000E+00

     total cpu time spent up to now is       46.6 secs

     WARNING: integrated charge=    16.00000209, expected=    16.00000000

     total energy              =     -48.19195864 Ry
     estimated scf accuracy    <          2.9E-09 Ry

     iteration #  5     ecut=    60.00 Ry     beta= 0.70
     Davidson diagonalization with overlap
     ethr =  1.83E-11,  avg # of iterations = 12.7

     negative rho (up, down):  1.772E-04 0.000E+00

     total cpu time spent up to now is       47.3 secs

     WARNING: integrated charge=    16.00000206, expected=    16.00000000

     total energy              =     -48.19195867 Ry
     estimated scf accuracy    <       0.00000001 Ry

     iteration #  6     ecut=    60.00 Ry     beta= 0.70
     Davidson diagonalization with overlap
     ethr =  1.83E-11,  avg # of iterations =  2.2

     negative rho (up, down):  1.772E-04 0.000E+00

     total cpu time spent up to now is       47.5 secs

     WARNING: integrated charge=    16.00000206, expected=    16.00000000

     total energy              =     -48.19195867 Ry
     estimated scf accuracy    <          3.4E-09 Ry

     iteration #  7     ecut=    60.00 Ry     beta= 0.70
     Davidson diagonalization with overlap
     ethr =  1.83E-11,  avg # of iterations =  4.0

     negative rho (up, down):  1.772E-04 0.000E+00

     total cpu time spent up to now is       47.8 secs

     WARNING: integrated charge=    16.00000206, expected=    16.00000000

     total energy              =     -48.19195867 Ry
     estimated scf accuracy    <          1.2E-10 Ry

     iteration #  8     ecut=    60.00 Ry     beta= 0.70
     Davidson diagonalization with overlap
     ethr =  7.22E-13,  avg # of iterations =  6.4

     negative rho (up, down):  1.772E-04 0.000E+00

     total cpu time spent up to now is       48.2 secs

     WARNING: integrated charge=    16.00000206, expected=    16.00000000

     total energy              =     -48.19195867 Ry
     estimated scf accuracy    <          3.3E-10 Ry

     iteration #  9     ecut=    60.00 Ry     beta= 0.70
     Davidson diagonalization with overlap
     ethr =  7.22E-13,  avg # of iterations =  1.7

     negative rho (up, down):  1.772E-04 0.000E+00

     total cpu time spent up to now is       48.5 secs

     WARNING: integrated charge=    16.00000206, expected=    16.00000000

     total energy              =     -48.19195867 Ry
     estimated scf accuracy    <          3.5E-10 Ry

     iteration # 10     ecut=    60.00 Ry     beta= 0.70
     Davidson diagonalization with overlap
     ethr =  7.22E-13,  avg # of iterations =  1.0

     negative rho (up, down):  1.772E-04 0.000E+00

     total cpu time spent up to now is       48.7 secs

     WARNING: integrated charge=    16.00000206, expected=    16.00000000

     total energy              =     -48.19195867 Ry
     estimated scf accuracy    <          3.5E-10 Ry

     iteration # 11     ecut=    60.00 Ry     beta= 0.70
     Davidson diagonalization with overlap
     ethr =  7.22E-13,  avg # of iterations =  1.8

     negative rho (up, down):  1.772E-04 0.000E+00

     total cpu time spent up to now is       48.9 secs

     WARNING: integrated charge=    16.00000206, expected=    16.00000000

     total energy              =     -48.19195867 Ry
     estimated scf accuracy    <          1.2E-10 Ry

     iteration # 12     ecut=    60.00 Ry     beta= 0.70
     Davidson diagonalization with overlap
     ethr =  7.22E-13,  avg # of iterations =  1.1

     negative rho (up, down):  1.772E-04 0.000E+00

     total cpu time spent up to now is       49.2 secs

     WARNING: integrated charge=    16.00000206, expected=    16.00000000

     total energy              =     -48.19195867 Ry
     estimated scf accuracy    <          7.0E-11 Ry

     iteration # 13     ecut=    60.00 Ry     beta= 0.70
     Davidson diagonalization with overlap
     ethr =  4.38E-13,  avg # of iterations =  3.5

     negative rho (up, down):  1.772E-04 0.000E+00

     total cpu time spent up to now is       49.4 secs

     End of self-consistent calculation

          k = 0.0000 0.0000 0.0000 (  5565 PWs)   bands (ev):

   -20.0349 -19.9279  -8.4874  -7.7102  -3.7799  -3.7799  -3.7742  -3.7742
     2.1723   2.4646   3.1956   4.3821

          k =-0.0000 0.1438 0.0000 (  5582 PWs)   bands (ev):

   -19.6699 -19.5655  -8.0473  -7.2824  -5.1313  -5.1157  -4.4604  -4.4493
     2.6718   2.9655   3.7023   4.8854

          k =-0.0000 0.2875 0.0000 (  5566 PWs)   bands (ev):

   -18.5850 -18.4881  -8.0808  -8.0476  -6.7551  -6.0323  -5.7338  -5.7183
     4.1665   4.4577   5.2213   6.3295

          k =-0.0000 0.4313 0.0000 (  5594 PWs)   bands (ev):

   -16.8206 -16.7361 -11.3043 -11.2533  -6.7186  -6.7012  -4.7542  -4.1384
     2.9856   3.3690   6.6248   6.8987

          k = 0.0000-0.5751 0.0000 (  5604 PWs)   bands (ev):

   -14.8772 -14.8379 -13.7431 -13.7137  -7.0736  -7.0556  -3.0807  -2.8016
     0.9870   1.2663   6.7686   6.9117

          k = 0.1245 0.2157 0.0000 (  5559 PWs)   bands (ev):

   -18.9450 -18.8456  -7.1798  -6.9046  -6.8902  -6.4415  -5.8097  -5.7997
     3.6699   3.9650   4.7158   5.8906

          k = 0.1245 0.3594 0.0000 (  5578 PWs)   bands (ev):

   -17.5190 -17.4294  -9.6477  -9.6107  -7.2954  -7.2734  -5.5109  -4.8389
     4.4154   4.6757   5.6587   5.9605

          k = 0.1245 0.5032 0.0000 (  5571 PWs)   bands (ev):

   -15.4844 -15.4114 -12.5881 -12.5340  -8.0530  -8.0264  -3.3639  -2.8891
     1.4855   1.8022   8.2752   8.4274

          k = 0.2490 0.4313 0.0000 (  5528 PWs)   bands (ev):

   -15.8031 -15.7260 -11.1609 -11.1348  -9.4998  -9.4810  -3.5719  -3.0056
     2.0732   2.3053   8.1043   8.3321

          k = 0.2490 0.5751 0.0000 (  5540 PWs)   bands (ev):

   -13.9367 -13.9012 -13.0071 -12.9934 -10.2790 -10.2459  -1.7546  -1.4868
     0.3420   0.3908  10.2088  10.3198

     the Fermi energy is    -0.3945 ev

     WARNING: integrated charge=    16.00000206, expected=    16.00000000

!    total energy              =     -48.19195867 Ry
     estimated scf accuracy    <          1.6E-12 Ry
     smearing contrib. (-TS)   =       0.00000003 Ry
     internal energy E=F+TS    =     -48.19195871 Ry

     The total energy is F=E-TS. E is the sum of the following terms:
     one-electron contribution =    -518.87232609 Ry
     hartree contribution      =     263.11498735 Ry
     xc contribution           =     -16.98705341 Ry
     ewald contribution        =     224.55243344 Ry

     convergence has been achieved in  13 iterations

     negative rho (up, down):  1.772E-04 0.000E+00

     Forces acting on atoms (cartesian axes, Ry/au):

     atom    1 type  1   force =     0.00000000   -0.00000000   -0.00056947
     atom    2 type  1   force =     0.00000000   -0.00000000   -0.00055966
     atom    3 type  1   force =     0.00000000    0.00000000    0.00056947
     atom    4 type  1   force =     0.00000000    0.00000000    0.00055966

     Total force =     0.001129     Total SCF correction =     0.000004


     Computing stress (Cartesian axis) and pressure


     negative rho (up, down):  1.772E-04 0.000E+00
          total   stress  (Ry/bohr**3)                   (kbar)     P=        0.15
  -0.00000195   0.00000000   0.00000000           -0.29        0.00        0.00
   0.00000000  -0.00000195   0.00000000            0.00       -0.29        0.00
   0.00000000   0.00000000   0.00000695            0.00        0.00        1.02

     Energy error            =      1.5E-06 Ry
     Gradient error          =      5.7E-04 Ry/Bohr
     Cell gradient error     =      2.9E-01 kbar

     number of scf cycles    =   5
     number of bfgs steps    =   4

     enthalpy           old  =     -48.1919571638 Ry
     enthalpy           new  =     -48.1919586745 Ry

     CASE: enthalpy          _new < enthalpy          _old

     new trust radius        =       0.0010504950 bohr
     new conv_thr            =            1.0E-11 Ry

     new unit-cell volume =    715.25567 a.u.^3 (   105.98996 Ang^3 )
     density =      0.75268 g/cm^3

CELL_PARAMETERS (alat=  4.65610675)
   1.003986748   0.000000000   0.000000000
  -0.501993374   0.869478029   0.000000000
   0.000000000   0.000000000   8.117194158

ATOMIC_POSITIONS (crystal)
C             0.0000000000        0.0000000000        0.4124059074
C             0.3333333330        0.6666666660        0.4123898499
[...]
     estimated scf accuracy    <       0.42088397 Ry

     iteration #  2     ecut=    60.00 Ry     beta= 0.70
     Davidson diagonalization with overlap
     ethr =  2.63E-03,  avg # of iterations =  1.5

     negative rho (up, down):  1.198E-04 0.000E+00

     total cpu time spent up to now is      111.2 secs

     total energy              =     -48.13511877 Ry
     estimated scf accuracy    <       0.01889102 Ry

     iteration #  3     ecut=    60.00 Ry     beta= 0.70
     Davidson diagonalization with overlap
     c_bands:  3 eigenvalues not converged
     c_bands:  2 eigenvalues not converged
     ethr =  1.18E-04,  avg # of iterations = 15.5

     negative rho (up, down):  1.203E-04 0.000E+00

     total cpu time spent up to now is      111.9 secs

     total energy              =     -48.20924249 Ry
     estimated scf accuracy    <       0.03284328 Ry

     iteration #  4     ecut=    60.00 Ry     beta= 0.70
     Davidson diagonalization with overlap
     ethr =  1.18E-04,  avg # of iterations =  4.6

     negative rho (up, down):  1.175E-04 0.000E+00

     total cpu time spent up to now is      112.2 secs

     total energy              =     -48.23034037 Ry
     estimated scf accuracy    <       0.03983025 Ry

     iteration #  5     ecut=    60.00 Ry     beta= 0.70
     Davidson diagonalization with overlap
     ethr =  1.18E-04,  avg # of iterations =  1.7

     negative rho (up, down):  5.617E-05 0.000E+00

     total cpu time spent up to now is      112.4 secs

     total energy              =     -48.27040525 Ry
     estimated scf accuracy    <       0.07401198 Ry

     iteration #  6     ecut=    60.00 Ry     beta= 0.70
     Davidson diagonalization with overlap
     c_bands:  1 eigenvalues not converged
     ethr =  1.18E-04,  avg # of iterations =  5.6

     negative rho (up, down):  5.923E-05 0.000E+00

     total cpu time spent up to now is      112.7 secs

     total energy              =     -48.25583067 Ry
     estimated scf accuracy    <       0.17630463 Ry

     iteration #  7     ecut=    60.00 Ry     beta= 0.70
     Davidson diagonalization with overlap
     ethr =  1.18E-04,  avg # of iterations =  1.1

     negative rho (up, down):  6.249E-05 0.000E+00

     total cpu time spent up to now is      112.9 secs

     total energy              =     -48.22807038 Ry
     estimated scf accuracy    <       0.14870807 Ry

     iteration #  8     ecut=    60.00 Ry     beta= 0.70
     Davidson diagonalization with overlap
     ethr =  1.18E-04,  avg # of iterations =  2.0

     negative rho (up, down):  7.032E-05 0.000E+00

     total cpu time spent up to now is      113.2 secs

     total energy              =     -48.21404620 Ry
     estimated scf accuracy    <       0.09986131 Ry

     iteration #  9     ecut=    60.00 Ry     beta= 0.70
     Davidson diagonalization with overlap
     ethr =  1.18E-04,  avg # of iterations =  1.3

     negative rho (up, down):  7.911E-05 0.000E+00

     total cpu time spent up to now is      113.4 secs

     total energy              =     -48.20169114 Ry
     estimated scf accuracy    <       0.06967125 Ry

     iteration # 10     ecut=    60.00 Ry     beta= 0.70
     Davidson diagonalization with overlap
     ethr =  1.18E-04,  avg # of iterations =  1.9

     negative rho (up, down):  9.920E-05 0.000E+00

     total cpu time spent up to now is      113.6 secs

     total energy              =     -48.18896143 Ry
     estimated scf accuracy    <       0.04338119 Ry

     iteration # 11     ecut=    60.00 Ry     beta= 0.70
     Davidson diagonalization with overlap
     ethr =  1.18E-04,  avg # of iterations =  3.3

     negative rho (up, down):  9.774E-05 0.000E+00

     total cpu time spent up to now is      113.9 secs

     total energy              =     -48.19321082 Ry
     estimated scf accuracy    <       0.01329349 Ry

     iteration # 12     ecut=    60.00 Ry     beta= 0.70
     Davidson diagonalization with overlap
     ethr =  8.31E-05,  avg # of iterations =  1.1

     negative rho (up, down):  1.407E-04 0.000E+00

     total cpu time spent up to now is      114.1 secs

     total energy              =     -48.18686236 Ry
     estimated scf accuracy    <       0.01285510 Ry

     iteration # 13     ecut=    60.00 Ry     beta= 0.70
     Davidson diagonalization with overlap
     ethr =  8.03E-05,  avg # of iterations =  3.0

     negative rho (up, down):  1.449E-04 0.000E+00

     total cpu time spent up to now is      114.4 secs

     WARNING: integrated charge=    16.00000161, expected=    16.00000000

     total energy              =     -48.18939880 Ry
     estimated scf accuracy    <       0.00010109 Ry

     iteration # 14     ecut=    60.00 Ry     beta= 0.70
     Davidson diagonalization with overlap
     c_bands:  5 eigenvalues not converged
     c_bands:  1 eigenvalues not converged
     c_bands:  1 eigenvalues not converged
     c_bands:  1 eigenvalues not converged
     ethr =  6.32E-07,  avg # of iterations = 24.8

     negative rho (up, down):  1.495E-04 0.000E+00

     total cpu time spent up to now is      115.8 secs

     WARNING: integrated charge=    16.00000164, expected=    16.00000000

     total energy              =     -48.19294333 Ry
     estimated scf accuracy    <       0.00108194 Ry

     iteration # 15     ecut=    60.00 Ry     beta= 0.70
     Davidson diagonalization with overlap
     c_bands:  1 eigenvalues not converged
     ethr =  6.32E-07,  avg # of iterations =  8.8

     negative rho (up, down):  1.457E-04 0.000E+00

     total cpu time spent up to now is      116.1 secs

     WARNING: integrated charge=    16.00000162, expected=    16.00000000

     total energy              =     -48.19226796 Ry
     estimated scf accuracy    <       0.00182604 Ry

     iteration # 16     ecut=    60.00 Ry     beta= 0.70
     Davidson diagonalization with overlap
     ethr =  6.32E-07,  avg # of iterations =  4.9

     negative rho (up, down):  1.460E-04 0.000E+00

     total cpu time spent up to now is      116.4 secs

     WARNING: integrated charge=    16.00000163, expected=    16.00000000

     total energy              =     -48.19208719 Ry
     estimated scf accuracy    <       0.00064342 Ry

     iteration # 17     ecut=    60.00 Ry     beta= 0.70
     Davidson diagonalization with overlap
     ethr =  6.32E-07,  avg # of iterations =  3.5

     negative rho (up, down):  1.460E-04 0.000E+00

     total cpu time spent up to now is      116.7 secs

     WARNING: integrated charge=    16.00000163, expected=    16.00000000

     total energy              =     -48.19209307 Ry
     estimated scf accuracy    <       0.00019155 Ry

     iteration # 18     ecut=    60.00 Ry     beta= 0.70
     Davidson diagonalization with overlap
     ethr =  6.32E-07,  avg # of iterations =  3.6

     negative rho (up, down):  1.494E-04 0.000E+00

     total cpu time spent up to now is      116.9 secs

     WARNING: integrated charge=    16.00000166, expected=    16.00000000

     total energy              =     -48.19226873 Ry
     estimated scf accuracy    <       0.00009681 Ry

     iteration # 19     ecut=    60.00 Ry     beta= 0.70
     Davidson diagonalization with overlap
     c_bands:  1 eigenvalues not converged
     c_bands:  2 eigenvalues not converged
     ethr =  6.05E-07,  avg # of iterations = 11.5

     negative rho (up, down):  1.542E-04 0.000E+00

     total cpu time spent up to now is      117.6 secs

     WARNING: integrated charge=    16.00000173, expected=    16.00000000

     total energy              =     -48.19254873 Ry
     estimated scf accuracy    <       0.00104323 Ry

     iteration # 20     ecut=    60.00 Ry     beta= 0.70
     Davidson diagonalization with overlap
     c_bands:  1 eigenvalues not converged
     ethr =  6.05E-07,  avg # of iterations =  5.8

     negative rho (up, down):  1.557E-04 0.000E+00

     total cpu time spent up to now is      117.8 secs

     WARNING: integrated charge=    16.00000174, expected=    16.00000000

     total energy              =     -48.19255296 Ry
     estimated scf accuracy    <       0.00102243 Ry

     iteration # 21     ecut=    60.00 Ry     beta= 0.70
     Davidson diagonalization with overlap
     ethr =  6.05E-07,  avg # of iterations =  1.0

     negative rho (up, down):  1.567E-04 0.000E+00

     total cpu time spent up to now is      118.1 secs

     WARNING: integrated charge=    16.00000175, expected=    16.00000000

     total energy              =     -48.19271650 Ry
     estimated scf accuracy    <       0.00105483 Ry

     iteration # 22     ecut=    60.00 Ry     beta= 0.70
     Davidson diagonalization with overlap
     ethr =  6.05E-07,  avg # of iterations =  1.2

     negative rho (up, down):  1.505E-04 0.000E+00

     total cpu time spent up to now is      118.3 secs

     WARNING: integrated charge=    16.00000170, expected=    16.00000000

     total energy              =     -48.19189526 Ry
     estimated scf accuracy    <       0.00135809 Ry

     iteration # 23     ecut=    60.00 Ry     beta= 0.70
     Davidson diagonalization with overlap
     ethr =  6.05E-07,  avg # of iterations =  7.2

     negative rho (up, down):  1.471E-04 0.000E+00

     total cpu time spent up to now is      118.7 secs

     WARNING: integrated charge=    16.00000167, expected=    16.00000000

     total energy              =     -48.19207976 Ry
     estimated scf accuracy    <       0.00000373 Ry

     iteration # 24     ecut=    60.00 Ry     beta= 0.70
     Davidson diagonalization with overlap
     ethr =  2.33E-08,  avg # of iterations =  7.2

     negative rho (up, down):  1.469E-04 0.000E+00

     total cpu time spent up to now is      119.2 secs

     WARNING: integrated charge=    16.00000167, expected=    16.00000000

     total energy              =     -48.19209298 Ry
     estimated scf accuracy    <       0.00000168 Ry

     iteration # 25     ecut=    60.00 Ry     beta= 0.70
     Davidson diagonalization with overlap
     ethr =  1.05E-08,  avg # of iterations =  1.9

     negative rho (up, down):  1.469E-04 0.000E+00

     total cpu time spent up to now is      119.4 secs

     WARNING: integrated charge=    16.00000167, expected=    16.00000000

     total energy              =     -48.19209300 Ry
     estimated scf accuracy    <       0.00000068 Ry

     iteration # 26     ecut=    60.00 Ry     beta= 0.70
     Davidson diagonalization with overlap
     ethr =  4.27E-09,  avg # of iterations =  4.3

     negative rho (up, down):  1.469E-04 0.000E+00

     total cpu time spent up to now is      119.7 secs

     WARNING: integrated charge=    16.00000167, expected=    16.00000000

     total energy              =     -48.19209320 Ry
     estimated scf accuracy    <       0.00000024 Ry

     iteration # 27     ecut=    60.00 Ry     beta= 0.70
     Davidson diagonalization with overlap
     ethr =  1.48E-09,  avg # of iterations =  3.2

     negative rho (up, down):  1.469E-04 0.000E+00

     total cpu time spent up to now is      120.0 secs

     WARNING: integrated charge=    16.00000167, expected=    16.00000000

     total energy              =     -48.19209318 Ry
     estimated scf accuracy    <       0.00000011 Ry

     iteration # 28     ecut=    60.00 Ry     beta= 0.70
     Davidson diagonalization with overlap
     ethr =  6.65E-10,  avg # of iterations =  4.0

     negative rho (up, down):  1.469E-04 0.000E+00

     total cpu time spent up to now is      120.3 secs

     WARNING: integrated charge=    16.00000167, expected=    16.00000000

     total energy              =     -48.19209322 Ry
     estimated scf accuracy    <          1.4E-09 Ry

     iteration # 29     ecut=    60.00 Ry     beta= 0.70
     Davidson diagonalization with overlap
     c_bands:  1 eigenvalues not converged
     ethr =  8.47E-12,  avg # of iterations = 14.9

     negative rho (up, down):  1.469E-04 0.000E+00

     total cpu time spent up to now is      121.0 secs

     WARNING: integrated charge=    16.00000167, expected=    16.00000000

     total energy              =     -48.19209324 Ry
     estimated scf accuracy    <          1.1E-09 Ry

     iteration # 30     ecut=    60.00 Ry     beta= 0.70
     Davidson diagonalization with overlap
     ethr =  6.96E-12,  avg # of iterations =  1.7

     negative rho (up, down):  1.469E-04 0.000E+00

     total cpu time spent up to now is      121.3 secs

     WARNING: integrated charge=    16.00000167, expected=    16.00000000

     total energy              =     -48.19209324 Ry
     estimated scf accuracy    <          4.1E-10 Ry

     iteration # 31     ecut=    60.00 Ry     beta= 0.70
     Davidson diagonalization with overlap
     ethr =  2.59E-12,  avg # of iterations =  4.1

     negative rho (up, down):  1.469E-04 0.000E+00

     total cpu time spent up to now is      121.6 secs

     WARNING: integrated charge=    16.00000167, expected=    16.00000000

     total energy              =     -48.19209324 Ry
     estimated scf accuracy    <          7.4E-10 Ry

     iteration # 32     ecut=    60.00 Ry     beta= 0.70
     Davidson diagonalization with overlap
     ethr =  2.59E-12,  avg # of iterations =  2.2

     negative rho (up, down):  1.469E-04 0.000E+00

     total cpu time spent up to now is      121.8 secs

     WARNING: integrated charge=    16.00000167, expected=    16.00000000

     total energy              =     -48.19209324 Ry
     estimated scf accuracy    <          1.5E-10 Ry

     iteration # 33     ecut=    60.00 Ry     beta= 0.70
     Davidson diagonalization with overlap
     ethr =  9.06E-13,  avg # of iterations =  4.4

     negative rho (up, down):  1.469E-04 0.000E+00

     total cpu time spent up to now is      122.1 secs

     WARNING: integrated charge=    16.00000167, expected=    16.00000000

     total energy              =     -48.19209324 Ry
     estimated scf accuracy    <          4.5E-11 Ry

     iteration # 34     ecut=    60.00 Ry     beta= 0.70
     Davidson diagonalization with overlap
     ethr =  2.80E-13,  avg # of iterations =  3.7

     negative rho (up, down):  1.469E-04 0.000E+00

     total cpu time spent up to now is      122.4 secs

     End of self-consistent calculation

          k = 0.0000 0.0000 0.0000 (  5565 PWs)   bands (ev):

   -20.0183 -19.9356  -8.4276  -7.7677  -3.7759  -3.7759  -3.7718  -3.7718
     2.1624   2.4619   3.2123   4.4217

          k =-0.0000 0.1438 0.0000 (  5606 PWs)   bands (ev):

   -19.6536 -19.5730  -7.9880  -7.3390  -5.1258  -5.1145  -4.4556  -4.4476
     2.6615   2.9628   3.7187   4.9249

          k =-0.0000 0.2875 0.0000 (  5626 PWs)   bands (ev):

   -18.5696 -18.4949  -8.0729  -8.0482  -6.6976  -6.0856  -5.7284  -5.7172
     4.1552   4.4552   5.2368   6.3702

          k =-0.0000 0.4313 0.0000 (  5628 PWs)   bands (ev):

   -16.8065 -16.7418 -11.2941 -11.2557  -6.7130  -6.7003  -4.7021  -4.1830
     3.0220   3.3418   6.6116   6.9189

          k = 0.0000-0.5751 0.0000 (  5652 PWs)   bands (ev):

   -14.8680 -14.8382 -13.7360 -13.7134  -7.0679  -7.0549  -3.0475  -2.8162
     1.0037   1.2478   6.7899   6.9022

          k = 0.1245 0.2157 0.0000 (  5610 PWs)   bands (ev):

   -18.9293 -18.8527  -7.1216  -6.8991  -6.8886  -6.4960  -5.8050  -5.7977
     3.6590   3.9622   4.7317   5.9305

          k = 0.1245 0.3594 0.0000 (  5626 PWs)   bands (ev):

   -17.5043 -17.4356  -9.6393  -9.6116  -7.2890  -7.2729  -5.4558  -4.8883
     4.4455   4.6593   5.6461   5.9578

          k = 0.1245 0.5032 0.0000 (  5619 PWs)   bands (ev):

   -15.4716 -15.4159 -12.5776 -12.5366  -8.0461  -8.0265  -3.3195  -2.9213
     1.5136   1.7810   8.2967   8.4177

          k = 0.2490 0.4313 0.0000 (  5576 PWs)   bands (ev):

   -15.7898 -15.7309 -11.1536 -11.1341  -9.4939  -9.4797  -3.5223  -3.0465
     2.1014   2.2914   8.0906   8.3328

          k = 0.2490 0.5751 0.0000 (  5598 PWs)   bands (ev):

   -13.9280 -13.9011 -13.0018 -12.9913 -10.2711 -10.2463  -1.7207  -1.4991
     0.3506   0.3849  10.2246  10.2918

     the Fermi energy is    -0.3980 ev

     WARNING: integrated charge=    16.00000167, expected=    16.00000000

!    total energy              =     -48.19209324 Ry
     estimated scf accuracy    <          3.9E-12 Ry
     smearing contrib. (-TS)   =       0.00000002 Ry
     internal energy E=F+TS    =     -48.19209326 Ry

     The total energy is F=E-TS. E is the sum of the following terms:
     one-electron contribution =    -507.28082008 Ry
     hartree contribution      =     257.32030735 Ry
     xc contribution           =     -16.98494555 Ry
     ewald contribution        =     218.75336501 Ry

     convergence has been achieved in  34 iterations

     negative rho (up, down):  1.469E-04 0.000E+00

     Forces acting on atoms (cartesian axes, Ry/au):

     atom    1 type  1   force =    -0.00000000   -0.00000000   -0.00001241
     atom    2 type  1   force =    -0.00000000    0.00000000   -0.00003802
     atom    3 type  1   force =    -0.00000000    0.00000000    0.00001241
     atom    4 type  1   force =    -0.00000000    0.00000000    0.00003802

     Total force =     0.000057     Total SCF correction =     0.000006


     Computing stress (Cartesian axis) and pressure


     negative rho (up, down):  1.469E-04 0.000E+00
          total   stress  (Ry/bohr**3)                   (kbar)     P=       -0.17
  -0.00000014   0.00000000   0.00000000           -0.02        0.00        0.00
   0.00000000  -0.00000014   0.00000000            0.00       -0.02        0.00
   0.00000000   0.00000000  -0.00000327            0.00        0.00       -0.48


     Writing all to output data dir ../tmp/gr.save/
 
     init_run     :      9.51s CPU      9.64s WALL (       2 calls)
     electrons    :     82.11s CPU     99.10s WALL (      19 calls)
     update_pot   :      3.45s CPU      3.68s WALL (      17 calls)
     forces       :      2.80s CPU      3.01s WALL (      19 calls)
     stress       :      6.75s CPU      7.25s WALL (      19 calls)

     Called by init_run:
     wfcinit      :      0.15s CPU      0.17s WALL (       2 calls)
     potinit      :      8.98s CPU      9.01s WALL (       2 calls)
     hinit0       :      0.24s CPU      0.31s WALL (       2 calls)

     Called by electrons:
     c_bands      :     59.16s CPU     70.92s WALL (     292 calls)
     sum_band     :      8.62s CPU     10.16s WALL (     292 calls)
     v_of_rho     :     22.89s CPU     26.16s WALL (     302 calls)
     newd         :      0.77s CPU      1.40s WALL (     302 calls)
     mix_rho      :      0.35s CPU      0.38s WALL (     292 calls)
     vdW_kernel   :      8.81s CPU      8.81s WALL (       1 calls)

     Called by c_bands:
     init_us_2    :      0.72s CPU      0.86s WALL (    6240 calls)
     init_us_2:cp :      0.71s CPU      0.85s WALL (    6240 calls)
     cegterg      :     56.60s CPU     67.94s WALL (    2949 calls)

     Called by *egterg:
     cdiaghg      :      1.64s CPU      1.97s WALL (   16533 calls)
     h_psi        :     48.03s CPU     57.62s WALL (   16832 calls)
     s_psi        :      1.08s CPU      1.31s WALL (   16832 calls)
     g_psi        :      0.25s CPU      0.30s WALL (   13863 calls)

     Called by h_psi:
     h_psi:calbec :      1.53s CPU      1.88s WALL (   16832 calls)
     vloc_psi     :     45.28s CPU     54.26s WALL (   16832 calls)
     add_vuspsi   :      1.11s CPU      1.35s WALL (   16832 calls)

     General routines
     calbec       :      1.99s CPU      2.43s WALL (   20702 calls)
     fft          :      5.81s CPU      7.94s WALL (   21659 calls)
     ffts         :      0.08s CPU      0.10s WALL (     292 calls)
     fftw         :     48.96s CPU     58.62s WALL (  288928 calls)
 
     Parallel routines
 
     PWSCF        :   1m44.80s CPU   2m 2.96s WALL

 
   This run was terminated on:   0:21:57   2Feb2022            

=------------------------------------------------------------------------------=
   JOB DONE.
=------------------------------------------------------------------------------=
