
     Program PWSCF v.7.0 starts on  2Feb2022 at  0:24: 8 

     This program is part of the open-source Quantum ESPRESSO suite
     for quantum simulation of materials; please cite
         "P. Giannozzi et al., J. Phys.:Condens. Matter 21 395502 (2009);
         "P. Giannozzi et al., J. Phys.:Condens. Matter 29 465901 (2017);
         "P. Giannozzi et al., J. Chem. Phys. 152 154105 (2020);
          URL http://www.quantum-espresso.org", 
     in publications or presentations arising from this work. More details at
     http://www.quantum-espresso.org/quote

     Parallel version (MPI), running on     4 processors

     MPI processes distributed on     1 nodes
     R & G space division:  proc/nbgrp/npool/nimage =       4
     236568 MiB available memory on the printing compute node when the environment starts
 
     Waiting for input...
     Reading input from standard input

     Current dimensions of program PWSCF are:
     Max number of different atomic species (ntypx) = 10
     Max number of k-points (npk) =  40000
     Max angular momentum in pseudopotentials (lmaxx) =  4

     IMPORTANT: XC functional enforced from input :
     Exchange-correlation= VDW-DF3-OPT1
                           (   1   4  45   0   3   0   0)
     Any further DFT definition will be discarded
     Please, verify this is what you really want


     Subspace diagonalization in iterative solution of the eigenvalue problem:
     a serial algorithm will be used

 
     Parallelization info
     --------------------
     sticks:   dense  smooth     PW     G-vecs:    dense   smooth      PW
     Min          90      90     27                11152    11152    1895
     Max          91      91     28                11175    11175    1922
     Sum         361     361    109                44659    44659    7615
 
     Using Slab Decomposition
 


     bravais-lattice index     =            4
     lattice parameter (alat)  =       4.6561  a.u.
     unit-cell volume          =     709.5865 (a.u.)^3
     number of atoms/cell      =            4
     number of atomic types    =            1
     number of electrons       =        16.00
     number of Kohn-Sham states=           12
     kinetic-energy cutoff     =      60.0000  Ry
     charge density cutoff     =     240.0000  Ry
     scf convergence threshold =      1.0E-09
     mixing beta               =       0.7000
     number of iterations used =            8  plain     mixing
     energy convergence thresh.=      1.0E-05
     force convergence thresh. =      1.0E-04
     press convergence thresh. =      5.0E-02
     Exchange-correlation= VDW-DF3-OPT1
                           (   1   4  45   0   3   0   0)
     nstep                     =           50


     celldm(1)=   4.656107  celldm(2)=   0.000000  celldm(3)=   8.117194
     celldm(4)=   0.000000  celldm(5)=   0.000000  celldm(6)=   0.000000

     crystal axes: (cart. coord. in units of alat)
               a(1) = (   1.000000   0.000000   0.000000 )  
               a(2) = (  -0.500000   0.866025   0.000000 )  
               a(3) = (   0.000000   0.000000   8.117194 )  

     reciprocal axes: (cart. coord. in units 2 pi/alat)
               b(1) = (  1.000000  0.577350  0.000000 )  
               b(2) = (  0.000000  1.154701  0.000000 )  
               b(3) = (  0.000000  0.000000  0.123195 )  


     PseudoPot. # 1 for C  read from file:
     ../pseudo/C.pbe-n-rrkjus_psl.0.1.UPF
     MD5 check sum: 96a6a315177d77e6c95bf6fd3870f9e3
     Pseudo is Ultrasoft + core correction, Zval =  4.0
     Generated using &quot;atomic&quot; code by A. Dal Corso  v.6.3MaX
     Using radial grid of 1073 points,  4 beta functions with: 
                l(1) =   0
                l(2) =   0
                l(3) =   1
                l(4) =   1
     Q(r) pseudized with 0 coefficients 


     atomic species   valence    mass     pseudopotential
        C              4.00    12.01070     C ( 1.00)

     12 Sym. Ops., with inversion, found



   Cartesian axes

     site n.     atom                  positions (alat units)
         1           C   tau(   1) = (   0.0000000   0.0000000   3.3483426  )
         2           C   tau(   2) = (   0.0000000   0.5773503   3.3483426  )
         3           C   tau(   3) = (   0.0000000   0.0000000   4.7688516  )
         4           C   tau(   4) = (   0.5000000   0.2886751   4.7688516  )

     number of k points=    10  Marzari-Vanderbilt smearing, width (Ry)=  0.0200
                       cart. coord. in units 2pi/alat
        k(    1) = (   0.0000000   0.0000000   0.0000000), wk =   0.0312500
        k(    2) = (   0.0000000   0.1443376   0.0000000), wk =   0.1875000
        k(    3) = (   0.0000000   0.2886751   0.0000000), wk =   0.1875000
        k(    4) = (   0.0000000   0.4330127   0.0000000), wk =   0.1875000
        k(    5) = (   0.0000000  -0.5773503   0.0000000), wk =   0.0937500
        k(    6) = (   0.1250000   0.2165064   0.0000000), wk =   0.1875000
        k(    7) = (   0.1250000   0.3608439   0.0000000), wk =   0.3750000
        k(    8) = (   0.1250000   0.5051815   0.0000000), wk =   0.3750000
        k(    9) = (   0.2500000   0.4330127   0.0000000), wk =   0.1875000
        k(   10) = (   0.2500000   0.5773503   0.0000000), wk =   0.1875000

     Dense  grid:    44659 G-vectors     FFT dimensions: (  24,  24, 192)

     Estimated max dynamical RAM per process >      19.86 MB

     Estimated total dynamical RAM >      79.43 MB

     Check: negative core charge=   -0.000004

     Initial potential from superposition of free atoms

     starting charge      15.9998, renormalised to      16.0000

     negative rho (up, down):  1.330E-04 0.000E+00


     %%%%%%%%%%%%%%%%%%%%%%%%%%%%%%%%%%%%%%%%%%%%%%%%%%%%%%%%%%%%%%%%%%%%%%%%
     %                                                                      %
     % You are using vdW-DF, which was implemented by the Thonhauser group. %
     % Please cite the following two papers that made this development      %
     % possible and the two reviews that describe the various versions:     %
     %                                                                      %
     %   T. Thonhauser et al., PRL 115, 136402 (2015).                      %
     %   T. Thonhauser et al., PRB 76, 125112 (2007).                       %
     %   K. Berland et al., Rep. Prog. Phys. 78, 066501 (2015).             %
     %   D.C. Langreth et al., J. Phys.: Condens. Matter 21, 084203 (2009). %
     %                                                                      %
     %                                                                      %
     % If you are calculating the stress with vdW-DF, please also cite:     %
     %                                                                      %
     %   R. Sabatini et al., J. Phys.: Condens. Matter 24, 424209 (2012).   %
     %                                                                      %
     %%%%%%%%%%%%%%%%%%%%%%%%%%%%%%%%%%%%%%%%%%%%%%%%%%%%%%%%%%%%%%%%%%%%%%%%


     Starting wfcs are   16 randomized atomic wfcs

     total cpu time spent up to now is        9.2 secs

     Self-consistent Calculation

     iteration #  1     ecut=    60.00 Ry     beta= 0.70
     Davidson diagonalization with overlap
     ethr =  1.00E-02,  avg # of iterations =  3.9

     Threshold (ethr) on eigenvalues was too large:
     Diagonalizing with lowered threshold

     Davidson diagonalization with overlap
     ethr =  6.90E-04,  avg # of iterations =  7.0

     negative rho (up, down):  4.040E-05 0.000E+00

     total cpu time spent up to now is        9.9 secs

     total energy              =     -47.81150422 Ry
     estimated scf accuracy    <       0.36469124 Ry

     iteration #  2     ecut=    60.00 Ry     beta= 0.70
     Davidson diagonalization with overlap
     ethr =  2.28E-03,  avg # of iterations =  1.6

     negative rho (up, down):  1.445E-04 0.000E+00

     total cpu time spent up to now is       10.1 secs

     total energy              =     -47.81385596 Ry
     estimated scf accuracy    <       0.02011241 Ry

     iteration #  3     ecut=    60.00 Ry     beta= 0.70
     Davidson diagonalization with overlap
     c_bands:  1 eigenvalues not converged
     c_bands:  3 eigenvalues not converged
     c_bands:  4 eigenvalues not converged
     c_bands:  2 eigenvalues not converged
     c_bands:  2 eigenvalues not converged
     c_bands:  2 eigenvalues not converged
     ethr =  1.26E-04,  avg # of iterations = 16.9

     negative rho (up, down):  1.476E-04 0.000E+00

     total cpu time spent up to now is       10.9 secs

     total energy              =     -47.88116232 Ry
     estimated scf accuracy    <       0.02897999 Ry

     iteration #  4     ecut=    60.00 Ry     beta= 0.70
     Davidson diagonalization with overlap
     ethr =  1.26E-04,  avg # of iterations =  4.5

     negative rho (up, down):  1.510E-04 0.000E+00

     total cpu time spent up to now is       11.2 secs

     total energy              =     -47.88662703 Ry
     estimated scf accuracy    <       0.03818711 Ry

     iteration #  5     ecut=    60.00 Ry     beta= 0.70
     Davidson diagonalization with overlap
     ethr =  1.26E-04,  avg # of iterations =  1.1

     negative rho (up, down):  1.220E-04 0.000E+00

     total cpu time spent up to now is       11.5 secs

     total energy              =     -47.87079274 Ry
     estimated scf accuracy    <       0.04500794 Ry

     iteration #  6     ecut=    60.00 Ry     beta= 0.70
     Davidson diagonalization with overlap
     ethr =  1.26E-04,  avg # of iterations =  1.4

     negative rho (up, down):  1.250E-04 0.000E+00

     total cpu time spent up to now is       11.7 secs

     total energy              =     -47.86652639 Ry
     estimated scf accuracy    <       0.02073157 Ry

     iteration #  7     ecut=    60.00 Ry     beta= 0.70
     Davidson diagonalization with overlap
     ethr =  1.26E-04,  avg # of iterations =  1.5

     negative rho (up, down):  1.229E-04 0.000E+00

     total cpu time spent up to now is       11.9 secs

     total energy              =     -47.86801007 Ry
     estimated scf accuracy    <       0.01115139 Ry

     iteration #  8     ecut=    60.00 Ry     beta= 0.70
     Davidson diagonalization with overlap
     ethr =  6.97E-05,  avg # of iterations =  1.0

     negative rho (up, down):  1.267E-04 0.000E+00

     total cpu time spent up to now is       12.2 secs

     total energy              =     -47.86753716 Ry
     estimated scf accuracy    <       0.01190398 Ry

     iteration #  9     ecut=    60.00 Ry     beta= 0.70
     Davidson diagonalization with overlap
     ethr =  6.97E-05,  avg # of iterations =  1.0

     negative rho (up, down):  1.411E-04 0.000E+00

     total cpu time spent up to now is       12.4 secs

     total energy              =     -47.86564234 Ry
     estimated scf accuracy    <       0.01005834 Ry

     iteration # 10     ecut=    60.00 Ry     beta= 0.70
     Davidson diagonalization with overlap
     ethr =  6.29E-05,  avg # of iterations =  1.1

     negative rho (up, down):  1.726E-04 0.000E+00

     total cpu time spent up to now is       12.6 secs

     WARNING: integrated charge=    16.00000173, expected=    16.00000000

     total energy              =     -47.86147086 Ry
     estimated scf accuracy    <       0.00627493 Ry

     iteration # 11     ecut=    60.00 Ry     beta= 0.70
     Davidson diagonalization with overlap
     ethr =  3.92E-05,  avg # of iterations =  6.6

     negative rho (up, down):  1.395E-04 0.000E+00

     total cpu time spent up to now is       12.9 secs

     total energy              =     -47.86479892 Ry
     estimated scf accuracy    <       0.00044842 Ry

     iteration # 12     ecut=    60.00 Ry     beta= 0.70
     Davidson diagonalization with overlap
     c_bands:  1 eigenvalues not converged
     c_bands:  2 eigenvalues not converged
     c_bands:  1 eigenvalues not converged
     c_bands:  1 eigenvalues not converged
     c_bands:  1 eigenvalues not converged
     ethr =  2.80E-06,  avg # of iterations = 16.9

     negative rho (up, down):  1.756E-04 0.000E+00

     total cpu time spent up to now is       13.5 secs

     WARNING: integrated charge=    16.00000178, expected=    16.00000000

     total energy              =     -47.86401182 Ry
     estimated scf accuracy    <       0.00260135 Ry

     iteration # 13     ecut=    60.00 Ry     beta= 0.70
     Davidson diagonalization with overlap
     c_bands:  2 eigenvalues not converged
     ethr =  2.80E-06,  avg # of iterations = 12.2

     negative rho (up, down):  1.735E-04 0.000E+00

     total cpu time spent up to now is       14.2 secs

     WARNING: integrated charge=    16.00000177, expected=    16.00000000

     total energy              =     -47.86489684 Ry
     estimated scf accuracy    <       0.00194864 Ry

     iteration # 14     ecut=    60.00 Ry     beta= 0.70
     Davidson diagonalization with overlap
     ethr =  2.80E-06,  avg # of iterations =  1.7

     negative rho (up, down):  1.711E-04 0.000E+00

     total cpu time spent up to now is       14.5 secs

     WARNING: integrated charge=    16.00000174, expected=    16.00000000

     total energy              =     -47.86422187 Ry
     estimated scf accuracy    <       0.00102575 Ry

     iteration # 15     ecut=    60.00 Ry     beta= 0.70
     Davidson diagonalization with overlap
     ethr =  2.80E-06,  avg # of iterations =  6.4

     negative rho (up, down):  1.703E-04 0.000E+00

     total cpu time spent up to now is       14.8 secs

     WARNING: integrated charge=    16.00000175, expected=    16.00000000

     total energy              =     -47.86457873 Ry
     estimated scf accuracy    <       0.00009569 Ry

     iteration # 16     ecut=    60.00 Ry     beta= 0.70
     Davidson diagonalization with overlap
     ethr =  5.98E-07,  avg # of iterations =  3.4

     negative rho (up, down):  1.741E-04 0.000E+00

     total cpu time spent up to now is       15.1 secs

     WARNING: integrated charge=    16.00000171, expected=    16.00000000

     total energy              =     -47.86467751 Ry
     estimated scf accuracy    <       0.00014697 Ry

     iteration # 17     ecut=    60.00 Ry     beta= 0.70
     Davidson diagonalization with overlap
     ethr =  5.98E-07,  avg # of iterations =  3.2

     negative rho (up, down):  1.754E-04 0.000E+00

     total cpu time spent up to now is       15.3 secs

     WARNING: integrated charge=    16.00000173, expected=    16.00000000

     total energy              =     -47.86467723 Ry
     estimated scf accuracy    <       0.00024246 Ry

     iteration # 18     ecut=    60.00 Ry     beta= 0.70
     Davidson diagonalization with overlap
     ethr =  5.98E-07,  avg # of iterations =  1.1

     negative rho (up, down):  1.776E-04 0.000E+00

     total cpu time spent up to now is       15.6 secs

     WARNING: integrated charge=    16.00000173, expected=    16.00000000

     total energy              =     -47.86450486 Ry
     estimated scf accuracy    <       0.00023832 Ry

     iteration # 19     ecut=    60.00 Ry     beta= 0.70
     Davidson diagonalization with overlap
     c_bands:  1 eigenvalues not converged
     ethr =  5.98E-07,  avg # of iterations =  5.7

     negative rho (up, down):  1.773E-04 0.000E+00

     total cpu time spent up to now is       15.9 secs

     WARNING: integrated charge=    16.00000170, expected=    16.00000000

     total energy              =     -47.86454036 Ry
     estimated scf accuracy    <       0.00001036 Ry

     iteration # 20     ecut=    60.00 Ry     beta= 0.70
     Davidson diagonalization with overlap
     ethr =  6.47E-08,  avg # of iterations =  5.4

     negative rho (up, down):  1.780E-04 0.000E+00

     total cpu time spent up to now is       16.2 secs

     WARNING: integrated charge=    16.00000170, expected=    16.00000000

     total energy              =     -47.86455598 Ry
     estimated scf accuracy    <       0.00000260 Ry

     iteration # 21     ecut=    60.00 Ry     beta= 0.70
     Davidson diagonalization with overlap
     ethr =  1.62E-08,  avg # of iterations =  4.7

     negative rho (up, down):  1.786E-04 0.000E+00

     total cpu time spent up to now is       16.6 secs

     WARNING: integrated charge=    16.00000171, expected=    16.00000000

     total energy              =     -47.86455226 Ry
     estimated scf accuracy    <       0.00001970 Ry

     iteration # 22     ecut=    60.00 Ry     beta= 0.70
     Davidson diagonalization with overlap
     ethr =  1.62E-08,  avg # of iterations =  1.5

     negative rho (up, down):  1.786E-04 0.000E+00

     total cpu time spent up to now is       16.8 secs

     WARNING: integrated charge=    16.00000172, expected=    16.00000000

     total energy              =     -47.86455280 Ry
     estimated scf accuracy    <       0.00001148 Ry

     iteration # 23     ecut=    60.00 Ry     beta= 0.70
     Davidson diagonalization with overlap
     ethr =  1.62E-08,  avg # of iterations =  1.0

     negative rho (up, down):  1.786E-04 0.000E+00

     total cpu time spent up to now is       17.0 secs

     WARNING: integrated charge=    16.00000172, expected=    16.00000000

     total energy              =     -47.86455312 Ry
     estimated scf accuracy    <       0.00001189 Ry

     iteration # 24     ecut=    60.00 Ry     beta= 0.70
     Davidson diagonalization with overlap
     ethr =  1.62E-08,  avg # of iterations =  1.0

     negative rho (up, down):  1.773E-04 0.000E+00

     total cpu time spent up to now is       17.3 secs

     WARNING: integrated charge=    16.00000172, expected=    16.00000000

     total energy              =     -47.86455499 Ry
     estimated scf accuracy    <       0.00001097 Ry

     iteration # 25     ecut=    60.00 Ry     beta= 0.70
     Davidson diagonalization with overlap
     ethr =  1.62E-08,  avg # of iterations =  1.6

     negative rho (up, down):  1.789E-04 0.000E+00

     total cpu time spent up to now is       17.5 secs

     WARNING: integrated charge=    16.00000172, expected=    16.00000000

     total energy              =     -47.86454572 Ry
     estimated scf accuracy    <       0.00000754 Ry

     iteration # 26     ecut=    60.00 Ry     beta= 0.70
     Davidson diagonalization with overlap
     ethr =  1.62E-08,  avg # of iterations =  4.7

     negative rho (up, down):  1.786E-04 0.000E+00

     total cpu time spent up to now is       17.8 secs

     WARNING: integrated charge=    16.00000171, expected=    16.00000000

     total energy              =     -47.86454891 Ry
     estimated scf accuracy    <       0.00000033 Ry

     iteration # 27     ecut=    60.00 Ry     beta= 0.70
     Davidson diagonalization with overlap
     ethr =  2.04E-09,  avg # of iterations =  4.3

     negative rho (up, down):  1.787E-04 0.000E+00

     total cpu time spent up to now is       18.2 secs

     WARNING: integrated charge=    16.00000172, expected=    16.00000000

     total energy              =     -47.86454913 Ry
     estimated scf accuracy    <       0.00000003 Ry

     iteration # 28     ecut=    60.00 Ry     beta= 0.70
     Davidson diagonalization with overlap
     ethr =  1.62E-10,  avg # of iterations =  4.9

     negative rho (up, down):  1.788E-04 0.000E+00

     total cpu time spent up to now is       18.5 secs

     WARNING: integrated charge=    16.00000172, expected=    16.00000000

     total energy              =     -47.86454809 Ry
     estimated scf accuracy    <       0.00000002 Ry

     iteration # 29     ecut=    60.00 Ry     beta= 0.70
     Davidson diagonalization with overlap
     ethr =  1.30E-10,  avg # of iterations =  5.1

     negative rho (up, down):  1.786E-04 0.000E+00

     total cpu time spent up to now is       18.9 secs

     WARNING: integrated charge=    16.00000172, expected=    16.00000000

     total energy              =     -47.86454910 Ry
     estimated scf accuracy    <       0.00000016 Ry

     iteration # 30     ecut=    60.00 Ry     beta= 0.70
     Davidson diagonalization with overlap
     ethr =  1.30E-10,  avg # of iterations =  5.0

     negative rho (up, down):  1.786E-04 0.000E+00

     total cpu time spent up to now is       19.2 secs

     WARNING: integrated charge=    16.00000172, expected=    16.00000000

     total energy              =     -47.86454914 Ry
     estimated scf accuracy    <       0.00000002 Ry

     iteration # 31     ecut=    60.00 Ry     beta= 0.70
     Davidson diagonalization with overlap
     ethr =  1.08E-10,  avg # of iterations =  1.8

     negative rho (up, down):  1.786E-04 0.000E+00

     total cpu time spent up to now is       19.5 secs

     WARNING: integrated charge=    16.00000172, expected=    16.00000000

     total energy              =     -47.86454914 Ry
     estimated scf accuracy    <       0.00000001 Ry

     iteration # 32     ecut=    60.00 Ry     beta= 0.70
     Davidson diagonalization with overlap
     ethr =  6.63E-11,  avg # of iterations =  1.9

     negative rho (up, down):  1.786E-04 0.000E+00

     total cpu time spent up to now is       19.7 secs

     WARNING: integrated charge=    16.00000172, expected=    16.00000000

     total energy              =     -47.86454915 Ry
     estimated scf accuracy    <          1.9E-09 Ry

     iteration # 33     ecut=    60.00 Ry     beta= 0.70
     Davidson diagonalization with overlap
     ethr =  1.22E-11,  avg # of iterations =  6.3

     negative rho (up, down):  1.786E-04 0.000E+00

     total cpu time spent up to now is       20.2 secs

     WARNING: integrated charge=    16.00000172, expected=    16.00000000

     total energy              =     -47.86454915 Ry
     estimated scf accuracy    <          7.6E-09 Ry

     iteration # 34     ecut=    60.00 Ry     beta= 0.70
     Davidson diagonalization with overlap
     ethr =  1.22E-11,  avg # of iterations =  4.4

     negative rho (up, down):  1.786E-04 0.000E+00

     total cpu time spent up to now is       20.5 secs

     End of self-consistent calculation

          k = 0.0000 0.0000 0.0000 (  5565 PWs)   bands (ev):

   -20.1759 -20.0644  -8.6767  -7.8606  -3.6936  -3.6936  -3.6877  -3.6877
     1.9999   2.3940   2.7538   4.0331

          k = 0.0000 0.1443 0.0000 (  5582 PWs)   bands (ev):

   -19.8062 -19.6975  -8.2295  -7.4260  -5.0701  -5.0539  -4.3962  -4.3847
     2.5112   2.9042   3.2552   4.5354

          k = 0.0000 0.2887 0.0000 (  5566 PWs)   bands (ev):

   -18.7067 -18.6058  -8.0711  -8.0364  -6.9151  -6.1548  -5.7023  -5.6863
     4.0432   4.4288   4.7568   6.0094

          k = 0.0000 0.4330 0.0000 (  5594 PWs)   bands (ev):

   -16.9148 -16.8266 -11.3499 -11.2965  -6.7078  -6.6898  -4.8732  -4.2233
     2.9600   3.3716   6.5769   6.8864

          k = 0.0000-0.5774 0.0000 (  5604 PWs)   bands (ev):

   -14.8928 -14.8521 -13.8755 -13.8443  -7.0695  -7.0510  -3.1435  -2.8537
     0.8993   1.2077   6.7223   6.8717

          k = 0.1250 0.2165 0.0000 (  5559 PWs)   bands (ev):

   -19.0716 -18.9681  -7.3474  -6.8615  -6.8467  -6.5711  -5.7941  -5.7837
     3.5333   3.9233   4.2580   5.5370

          k = 0.1250 0.3608 0.0000 (  5578 PWs)   bands (ev):

   -17.6251 -17.5318  -9.6523  -9.6134  -7.3137  -7.2904  -5.6476  -4.9397
     4.4480   4.7231   5.5718   5.9600

          k = 0.1250 0.5052 0.0000 (  5571 PWs)   bands (ev):

   -15.5498 -15.4732 -12.6565 -12.5992  -8.0811  -8.0532  -3.4480  -2.9463
     1.4376   1.7819   8.2676   8.4329

          k = 0.2500 0.4330 0.0000 (  5528 PWs)   bands (ev):

   -15.8798 -15.7993 -11.1536 -11.1267  -9.6035  -9.5834  -3.6683  -3.0707
     2.0800   2.3214   8.0931   8.4124

          k = 0.2500 0.5774 0.0000 (  5540 PWs)   bands (ev):

   -13.9470 -13.9102 -13.0729 -13.0563 -10.3928 -10.3564  -1.8009  -1.5229
     0.3225   0.3634  10.0194  10.0680

     the Fermi energy is    -0.4231 ev

     WARNING: integrated charge=    16.00000172, expected=    16.00000000

!    total energy              =     -47.86454915 Ry
     estimated scf accuracy    <          4.0E-11 Ry
     smearing contrib. (-TS)   =       0.00000003 Ry
     internal energy E=F+TS    =     -47.86454917 Ry

     The total energy is F=E-TS. E is the sum of the following terms:
     one-electron contribution =    -523.24610570 Ry
     hartree contribution      =     265.21792630 Ry
     xc contribution           =     -16.64241253 Ry
     ewald contribution        =     226.80604275 Ry

     convergence has been achieved in  34 iterations

     negative rho (up, down):  1.786E-04 0.000E+00

     Forces acting on atoms (cartesian axes, Ry/au):

     atom    1 type  1   force =     0.00000000    0.00000000    0.00091229
     atom    2 type  1   force =     0.00000000    0.00000000    0.00059029
     atom    3 type  1   force =     0.00000000    0.00000000   -0.00091229
     atom    4 type  1   force =     0.00000000    0.00000000   -0.00059029

     Total force =     0.001537     Total SCF correction =     0.000007


     Computing stress (Cartesian axis) and pressure


     negative rho (up, down):  1.786E-04 0.000E+00
          total   stress  (Ry/bohr**3)                   (kbar)     P=       -4.70
  -0.00003434   0.00000000   0.00000000           -5.05        0.00        0.00
   0.00000000  -0.00003434   0.00000000            0.00       -5.05        0.00
  -0.00000000  -0.00000000  -0.00002718           -0.00       -0.00       -4.00


     BFGS Geometry Optimization
     Energy error            =      0.0E+00 Ry
     Gradient error          =      9.1E-04 Ry/Bohr
     Cell gradient error     =      5.1E+00 kbar

     number of scf cycles    =   1
     number of bfgs steps    =   0

     enthalpy           new  =     -47.8645491486 Ry

     new trust radius        =       0.0045735638 bohr
     new conv_thr            =       0.0000000010 Ry

     new unit-cell volume =    708.36873 a.u.^3 (   104.96942 Ang^3 )
     density =      0.76000 g/cm^3

CELL_PARAMETERS (alat=  4.65610675)
   0.999141536   0.000000000   0.000000000
  -0.499570768   0.865281952   0.000000000
   0.000000000   0.000000000   8.117194158

ATOMIC_POSITIONS (crystal)
C             0.0000000000        0.0000000000        0.4125241381
C             0.3333333330        0.6666666660        0.4125156183
C             0.0000000000        0.0000000000        0.5874758619
C             0.6666666660        0.3333333330        0.5874843817



     Writing config-only to output data dir ../tmp/gr.save/
     NEW-OLD atomic charge density approx. for the potential

     Check: negative core charge=   -0.000004

     negative rho (up, down):  1.816E-04 0.000E+00
     extrapolated charge   15.97250, renormalised to   16.00000

     total cpu time spent up to now is       21.2 secs

     Self-consistent Calculation

     iteration #  1     ecut=    60.00 Ry     beta= 0.70
     Davidson diagonalization with overlap
     c_bands:  1 eigenvalues not converged
     c_bands:  1 eigenvalues not converged
     ethr =  1.00E-06,  avg # of iterations = 14.9

     negative rho (up, down):  1.840E-04 0.000E+00

     total cpu time spent up to now is       21.8 secs

     total energy              =     -47.86364532 Ry
     estimated scf accuracy    <       0.00068038 Ry

     iteration #  2     ecut=    60.00 Ry     beta= 0.70
     Davidson diagonalization with overlap
     c_bands:  1 eigenvalues not converged
     c_bands:  1 eigenvalues not converged
     c_bands:  1 eigenvalues not converged
     ethr =  4.25E-06,  avg # of iterations = 13.8

     negative rho (up, down):  1.816E-04 0.000E+00

     total cpu time spent up to now is       22.3 secs

     total energy              =     -47.86440431 Ry
     estimated scf accuracy    <       0.00269389 Ry

     iteration #  3     ecut=    60.00 Ry     beta= 0.70
     Davidson diagonalization with overlap
     ethr =  4.25E-06,  avg # of iterations =  4.7

     negative rho (up, down):  1.809E-04 0.000E+00

     total cpu time spent up to now is       22.6 secs

     total energy              =     -47.86453511 Ry
     estimated scf accuracy    <       0.00038489 Ry

     iteration #  4     ecut=    60.00 Ry     beta= 0.70
     Davidson diagonalization with overlap
     ethr =  2.41E-06,  avg # of iterations =  3.5

     negative rho (up, down):  1.807E-04 0.000E+00

     total cpu time spent up to now is       22.9 secs

     total energy              =     -47.86454965 Ry
     estimated scf accuracy    <       0.00010237 Ry

     iteration #  5     ecut=    60.00 Ry     beta= 0.70
     Davidson diagonalization with overlap
     ethr =  6.40E-07,  avg # of iterations =  3.0

     negative rho (up, down):  1.806E-04 0.000E+00

     total cpu time spent up to now is       23.1 secs

     total energy              =     -47.86456348 Ry
     estimated scf accuracy    <       0.00004323 Ry

     iteration #  6     ecut=    60.00 Ry     beta= 0.70
     Davidson diagonalization with overlap
     ethr =  2.70E-07,  avg # of iterations =  2.7

     negative rho (up, down):  1.800E-04 0.000E+00

     total cpu time spent up to now is       23.4 secs

     total energy              =     -47.86457432 Ry
     estimated scf accuracy    <       0.00003080 Ry

     iteration #  7     ecut=    60.00 Ry     beta= 0.70
     Davidson diagonalization with overlap
     ethr =  1.92E-07,  avg # of iterations =  1.4

     negative rho (up, down):  1.789E-04 0.000E+00

     total cpu time spent up to now is       23.6 secs

     total energy              =     -47.86457479 Ry
     estimated scf accuracy    <       0.00003770 Ry

     iteration #  8     ecut=    60.00 Ry     beta= 0.70
     Davidson diagonalization with overlap
     ethr =  1.92E-07,  avg # of iterations =  1.0

     negative rho (up, down):  1.778E-04 0.000E+00

     total cpu time spent up to now is       23.9 secs

     WARNING: integrated charge=    16.00000162, expected=    16.00000000

     total energy              =     -47.86457004 Ry
     estimated scf accuracy    <       0.00003058 Ry

     iteration #  9     ecut=    60.00 Ry     beta= 0.70
     Davidson diagonalization with overlap
     ethr =  1.91E-07,  avg # of iterations =  2.3

     negative rho (up, down):  1.781E-04 0.000E+00

     total cpu time spent up to now is       24.1 secs

     WARNING: integrated charge=    16.00000163, expected=    16.00000000

     total energy              =     -47.86457014 Ry
     estimated scf accuracy    <       0.00000847 Ry

     iteration # 10     ecut=    60.00 Ry     beta= 0.70
     Davidson diagonalization with overlap
     ethr =  5.30E-08,  avg # of iterations =  4.8

     negative rho (up, down):  1.781E-04 0.000E+00

     total cpu time spent up to now is       24.4 secs

     WARNING: integrated charge=    16.00000163, expected=    16.00000000

     total energy              =     -47.86457455 Ry
     estimated scf accuracy    <       0.00000048 Ry

     iteration # 11     ecut=    60.00 Ry     beta= 0.70
     Davidson diagonalization with overlap
     ethr =  3.01E-09,  avg # of iterations =  6.3

     negative rho (up, down):  1.781E-04 0.000E+00

     total cpu time spent up to now is       24.8 secs

     WARNING: integrated charge=    16.00000163, expected=    16.00000000

     total energy              =     -47.86457564 Ry
     estimated scf accuracy    <       0.00000015 Ry

     iteration # 12     ecut=    60.00 Ry     beta= 0.70
     Davidson diagonalization with overlap
     ethr =  9.47E-10,  avg # of iterations =  3.1

     negative rho (up, down):  1.792E-04 0.000E+00

     total cpu time spent up to now is       25.1 secs

     WARNING: integrated charge=    16.00000163, expected=    16.00000000

     total energy              =     -47.86457306 Ry
     estimated scf accuracy    <       0.00000028 Ry

     iteration # 13     ecut=    60.00 Ry     beta= 0.70
     Davidson diagonalization with overlap
     ethr =  9.47E-10,  avg # of iterations =  4.5

     negative rho (up, down):  1.797E-04 0.000E+00

     total cpu time spent up to now is       25.4 secs

     WARNING: integrated charge=    16.00000163, expected=    16.00000000

     total energy              =     -47.86457367 Ry
     estimated scf accuracy    <       0.00000043 Ry

     iteration # 14     ecut=    60.00 Ry     beta= 0.70
     Davidson diagonalization with overlap
     ethr =  9.47E-10,  avg # of iterations =  4.1

     negative rho (up, down):  1.797E-04 0.000E+00

     total cpu time spent up to now is       25.7 secs

     WARNING: integrated charge=    16.00000163, expected=    16.00000000

     total energy              =     -47.86457387 Ry
     estimated scf accuracy    <       0.00000326 Ry

     iteration # 15     ecut=    60.00 Ry     beta= 0.70
     Davidson diagonalization with overlap
     ethr =  9.47E-10,  avg # of iterations =  1.5

     negative rho (up, down):  1.794E-04 0.000E+00

     total cpu time spent up to now is       25.9 secs

     WARNING: integrated charge=    16.00000163, expected=    16.00000000

     total energy              =     -47.86457341 Ry
     estimated scf accuracy    <       0.00000302 Ry

     iteration # 16     ecut=    60.00 Ry     beta= 0.70
     Davidson diagonalization with overlap
     ethr =  9.47E-10,  avg # of iterations =  3.5

     negative rho (up, down):  1.793E-04 0.000E+00

     total cpu time spent up to now is       26.2 secs

     WARNING: integrated charge=    16.00000163, expected=    16.00000000

     total energy              =     -47.86457363 Ry
     estimated scf accuracy    <       0.00000163 Ry

     iteration # 17     ecut=    60.00 Ry     beta= 0.70
     Davidson diagonalization with overlap
     ethr =  9.47E-10,  avg # of iterations =  1.0

     negative rho (up, down):  1.793E-04 0.000E+00

     total cpu time spent up to now is       26.4 secs

     WARNING: integrated charge=    16.00000164, expected=    16.00000000

     total energy              =     -47.86457359 Ry
     estimated scf accuracy    <       0.00000179 Ry

     iteration # 18     ecut=    60.00 Ry     beta= 0.70
     Davidson diagonalization with overlap
     ethr =  9.47E-10,  avg # of iterations =  1.0

     negative rho (up, down):  1.793E-04 0.000E+00

     total cpu time spent up to now is       26.6 secs

     WARNING: integrated charge=    16.00000164, expected=    16.00000000

     total energy              =     -47.86457351 Ry
     estimated scf accuracy    <       0.00000167 Ry

     iteration # 19     ecut=    60.00 Ry     beta= 0.70
     Davidson diagonalization with overlap
     ethr =  9.47E-10,  avg # of iterations =  1.4

     negative rho (up, down):  1.783E-04 0.000E+00

     total cpu time spent up to now is       26.9 secs

     WARNING: integrated charge=    16.00000163, expected=    16.00000000

     total energy              =     -47.86457444 Ry
     estimated scf accuracy    <       0.00000125 Ry

     iteration # 20     ecut=    60.00 Ry     beta= 0.70
     Davidson diagonalization with overlap
     ethr =  9.47E-10,  avg # of iterations =  5.9

     negative rho (up, down):  1.789E-04 0.000E+00

     total cpu time spent up to now is       27.3 secs

     WARNING: integrated charge=    16.00000163, expected=    16.00000000

     total energy              =     -47.86457390 Ry
     estimated scf accuracy    <       0.00000160 Ry

     iteration # 21     ecut=    60.00 Ry     beta= 0.70
     Davidson diagonalization with overlap
     ethr =  9.47E-10,  avg # of iterations =  4.8

     negative rho (up, down):  1.787E-04 0.000E+00

     total cpu time spent up to now is       27.6 secs

     WARNING: integrated charge=    16.00000163, expected=    16.00000000

     total energy              =     -47.86457469 Ry
     estimated scf accuracy    <       0.00000060 Ry

     iteration # 22     ecut=    60.00 Ry     beta= 0.70
     Davidson diagonalization with overlap
     ethr =  9.47E-10,  avg # of iterations =  4.0

     negative rho (up, down):  1.787E-04 0.000E+00

     total cpu time spent up to now is       27.9 secs

     End of self-consistent calculation

          k = 0.0000 0.0000 0.0000 (  5565 PWs)   bands (ev):

   -20.1853 -20.0738  -8.6828  -7.8666  -3.6814  -3.6814  -3.6756  -3.6756
     1.9979   2.3910   2.7541   4.0313

          k =-0.0000 0.1445 0.0000 (  5582 PWs)   bands (ev):

   -19.8150 -19.7062  -8.2347  -7.4310  -5.0593  -5.0431  -4.3859  -4.3744
     2.5101   2.9022   3.2563   4.5342

          k =-0.0000 0.2889 0.0000 (  5566 PWs)   bands (ev):

   -18.7138 -18.6129  -8.0641  -8.0295  -6.9175  -6.1570  -5.6952  -5.6792
     4.0448   4.4295   4.7606   6.0108

          k =-0.0000 0.4334 0.0000 (  5594 PWs)   bands (ev):

   -16.9189 -16.8308 -11.3478 -11.2945  -6.7029  -6.6849  -4.8711  -4.2210
     2.9784   3.3904   6.5834   6.9249

          k = 0.0000-0.5778 0.0000 (  5604 PWs)   bands (ev):

   -14.8905 -14.8498 -13.8807 -13.8495  -7.0654  -7.0470  -3.1372  -2.8473
     0.9116   1.2204   6.7590   6.9087

          k = 0.1251 0.2167 0.0000 (  5559 PWs)   bands (ev):

   -19.0793 -18.9758  -7.3507  -6.8522  -6.8375  -6.5742  -5.7873  -5.7769
     3.5340   3.9230   4.2610   5.5378

          k = 0.1251 0.3612 0.0000 (  5578 PWs)   bands (ev):

   -17.6305 -17.5372  -9.6470  -9.6081  -7.3097  -7.2864  -5.6473  -4.9391
     4.4711   4.7465   5.5763   5.9623

          k = 0.1251 0.5056 0.0000 (  5571 PWs)   bands (ev):

   -15.5513 -15.4746 -12.6567 -12.5993  -8.0783  -8.0504  -3.4427  -2.9406
     1.4524   1.7972   8.3053   8.4710

          k = 0.2502 0.4334 0.0000 (  5528 PWs)   bands (ev):

   -15.8822 -15.8017 -11.1482 -11.1214  -9.6053  -9.5852  -3.6636  -3.0657
     2.0977   2.3393   8.1022   8.4211

          k = 0.2502 0.5778 0.0000 (  5540 PWs)   bands (ev):

   -13.9439 -13.9072 -13.0734 -13.0567 -10.3955 -10.3590  -1.7918  -1.5136
     0.3357   0.3764  10.0366  10.0849

     the Fermi energy is    -0.4118 ev

     WARNING: integrated charge=    16.00000163, expected=    16.00000000

!    total energy              =     -47.86457494 Ry
     estimated scf accuracy    <          1.8E-10 Ry
     smearing contrib. (-TS)   =       0.00000002 Ry
     internal energy E=F+TS    =     -47.86457496 Ry

     The total energy is F=E-TS. E is the sum of the following terms:
     one-electron contribution =    -524.24218916 Ry
     hartree contribution      =     265.72187740 Ry
     xc contribution           =     -16.65016763 Ry
     ewald contribution        =     227.30590444 Ry

     convergence has been achieved in  22 iterations

     negative rho (up, down):  1.787E-04 0.000E+00

     Forces acting on atoms (cartesian axes, Ry/au):

     atom    1 type  1   force =    -0.00000000    0.00000000    0.00086357
     atom    2 type  1   force =     0.00000000   -0.00000000    0.00076648
     atom    3 type  1   force =    -0.00000000    0.00000000   -0.00086357
     atom    4 type  1   force =     0.00000000    0.00000000   -0.00076648

     Total force =     0.001633     Total SCF correction =     0.000037


     Computing stress (Cartesian axis) and pressure


     negative rho (up, down):  1.787E-04 0.000E+00
          total   stress  (Ry/bohr**3)                   (kbar)     P=       -2.31
  -0.00000989   0.00000000   0.00000000           -1.46        0.00        0.00
   0.00000000  -0.00000989   0.00000000            0.00       -1.46        0.00
   0.00000000   0.00000000  -0.00002723            0.00        0.00       -4.01

     Energy error            =      2.6E-05 Ry
     Gradient error          =      8.6E-04 Ry/Bohr
     Cell gradient error     =      1.5E+00 kbar

     number of scf cycles    =   2
     number of bfgs steps    =   1

     enthalpy           old  =     -47.8645491486 Ry
     enthalpy           new  =     -47.8645749367 Ry

     CASE: enthalpy          _new < enthalpy          _old

     new trust radius        =       0.0022734042 bohr
     new conv_thr            =            2.6E-11 Ry

     new unit-cell volume =    707.76378 a.u.^3 (   104.87977 Ang^3 )
     density =      0.76065 g/cm^3

CELL_PARAMETERS (alat=  4.65610675)
   0.998714815   0.000000000   0.000000000
  -0.499357408   0.864912401   0.000000000
   0.000000000   0.000000000   8.117194158

ATOMIC_POSITIONS (crystal)
C             0.0000000000        0.0000000000        0.4125598196
C             0.3333333330        0.6666666660        0.4125468915
C            -0.0000000000        0.0000000000        0.5874401804
C             0.6666666660        0.3333333330        0.5874531085



     Writing config-only to output data dir ../tmp/gr.save/
     NEW-OLD atomic charge density approx. for the potential

     Check: negative core charge=   -0.000004

     negative rho (up, down):  1.805E-04 0.000E+00
     extrapolated charge   15.98633, renormalised to   16.00000

     total cpu time spent up to now is       28.7 secs

     Self-consistent Calculation

     iteration #  1     ecut=    60.00 Ry     beta= 0.70
     Davidson diagonalization with overlap
     c_bands:  1 eigenvalues not converged
     c_bands:  2 eigenvalues not converged
     ethr =  1.00E-06,  avg # of iterations = 11.7

     negative rho (up, down):  1.815E-04 0.000E+00

     total cpu time spent up to now is       29.1 secs

     total energy              =     -47.86434915 Ry
     estimated scf accuracy    <       0.00015845 Ry

     iteration #  2     ecut=    60.00 Ry     beta= 0.70
     Davidson diagonalization with overlap
     c_bands:  1 eigenvalues not converged
     c_bands:  1 eigenvalues not converged
     ethr =  9.90E-07,  avg # of iterations = 13.1

     negative rho (up, down):  1.803E-04 0.000E+00

     total cpu time spent up to now is       29.6 secs

     total energy              =     -47.86453497 Ry
     estimated scf accuracy    <       0.00061174 Ry

     iteration #  3     ecut=    60.00 Ry     beta= 0.70
     Davidson diagonalization with overlap
     ethr =  9.90E-07,  avg # of iterations =  3.8

     negative rho (up, down):  1.797E-04 0.000E+00

     total cpu time spent up to now is       29.9 secs

     total energy              =     -47.86456807 Ry
     estimated scf accuracy    <       0.00008365 Ry

     iteration #  4     ecut=    60.00 Ry     beta= 0.70
     Davidson diagonalization with overlap
     ethr =  5.23E-07,  avg # of iterations =  2.0

     negative rho (up, down):  1.797E-04 0.000E+00

     total cpu time spent up to now is       30.1 secs

     total energy              =     -47.86457302 Ry
     estimated scf accuracy    <       0.00002445 Ry

     iteration #  5     ecut=    60.00 Ry     beta= 0.70
     Davidson diagonalization with overlap
     ethr =  1.53E-07,  avg # of iterations =  2.4

     negative rho (up, down):  1.796E-04 0.000E+00

     total cpu time spent up to now is       30.4 secs

     total energy              =     -47.86457531 Ry
     estimated scf accuracy    <       0.00001443 Ry

     iteration #  6     ecut=    60.00 Ry     beta= 0.70
     Davidson diagonalization with overlap
     ethr =  9.02E-08,  avg # of iterations =  2.1

     negative rho (up, down):  1.792E-04 0.000E+00

     total cpu time spent up to now is       30.6 secs

     total energy              =     -47.86457497 Ry
     estimated scf accuracy    <       0.00000918 Ry

     iteration #  7     ecut=    60.00 Ry     beta= 0.70
     Davidson diagonalization with overlap
     ethr =  5.74E-08,  avg # of iterations =  3.8

     negative rho (up, down):  1.790E-04 0.000E+00

     total cpu time spent up to now is       30.9 secs

     WARNING: integrated charge=    16.00000161, expected=    16.00000000

     total energy              =     -47.86457701 Ry
     estimated scf accuracy    <       0.00000131 Ry

     iteration #  8     ecut=    60.00 Ry     beta= 0.70
     Davidson diagonalization with overlap
     ethr =  8.19E-09,  avg # of iterations =  5.1

     negative rho (up, down):  1.791E-04 0.000E+00

     total cpu time spent up to now is       31.2 secs

     WARNING: integrated charge=    16.00000160, expected=    16.00000000

     total energy              =     -47.86457946 Ry
     estimated scf accuracy    <       0.00000096 Ry

     iteration #  9     ecut=    60.00 Ry     beta= 0.70
     Davidson diagonalization with overlap
     ethr =  5.99E-09,  avg # of iterations =  1.9

     negative rho (up, down):  1.790E-04 0.000E+00

     total cpu time spent up to now is       31.5 secs

     total energy              =     -47.86457955 Ry
     estimated scf accuracy    <       0.00000110 Ry

     iteration # 10     ecut=    60.00 Ry     beta= 0.70
     Davidson diagonalization with overlap
     ethr =  5.99E-09,  avg # of iterations =  1.0

     negative rho (up, down):  1.789E-04 0.000E+00

     total cpu time spent up to now is       31.7 secs

     total energy              =     -47.86457939 Ry
     estimated scf accuracy    <       0.00000112 Ry

     iteration # 11     ecut=    60.00 Ry     beta= 0.70
     Davidson diagonalization with overlap
     ethr =  5.99E-09,  avg # of iterations =  1.0

     negative rho (up, down):  1.789E-04 0.000E+00

     total cpu time spent up to now is       32.0 secs

     total energy              =     -47.86457941 Ry
     estimated scf accuracy    <       0.00000064 Ry

     iteration # 12     ecut=    60.00 Ry     beta= 0.70
     Davidson diagonalization with overlap
     ethr =  4.00E-09,  avg # of iterations =  1.0

     negative rho (up, down):  1.789E-04 0.000E+00

     total cpu time spent up to now is       32.2 secs

     total energy              =     -47.86457943 Ry
     estimated scf accuracy    <       0.00000061 Ry

     iteration # 13     ecut=    60.00 Ry     beta= 0.70
     Davidson diagonalization with overlap
     ethr =  3.83E-09,  avg # of iterations =  1.0

     negative rho (up, down):  1.787E-04 0.000E+00

     total cpu time spent up to now is       32.4 secs

     total energy              =     -47.86457965 Ry
     estimated scf accuracy    <       0.00000062 Ry

     iteration # 14     ecut=    60.00 Ry     beta= 0.70
     Davidson diagonalization with overlap
     ethr =  3.83E-09,  avg # of iterations =  1.0

     negative rho (up, down):  1.784E-04 0.000E+00

     total cpu time spent up to now is       32.6 secs

     total energy              =     -47.86457982 Ry
     estimated scf accuracy    <       0.00000032 Ry

     iteration # 15     ecut=    60.00 Ry     beta= 0.70
     Davidson diagonalization with overlap
     ethr =  2.02E-09,  avg # of iterations =  4.0

     negative rho (up, down):  1.785E-04 0.000E+00

     total cpu time spent up to now is       32.9 secs

     total energy              =     -47.86457993 Ry
     estimated scf accuracy    <       0.00000012 Ry

     iteration # 16     ecut=    60.00 Ry     beta= 0.70
     Davidson diagonalization with overlap
     ethr =  7.70E-10,  avg # of iterations =  1.4

     negative rho (up, down):  1.784E-04 0.000E+00

     total cpu time spent up to now is       33.2 secs

     total energy              =     -47.86458014 Ry
     estimated scf accuracy    <       0.00000003 Ry

     iteration # 17     ecut=    60.00 Ry     beta= 0.70
     Davidson diagonalization with overlap
     ethr =  1.92E-10,  avg # of iterations =  5.3

     negative rho (up, down):  1.786E-04 0.000E+00

     total cpu time spent up to now is       33.5 secs

     total energy              =     -47.86457992 Ry
     estimated scf accuracy    <       0.00000027 Ry

     iteration # 18     ecut=    60.00 Ry     beta= 0.70
     Davidson diagonalization with overlap
     ethr =  1.92E-10,  avg # of iterations =  3.8

     negative rho (up, down):  1.786E-04 0.000E+00

     total cpu time spent up to now is       33.8 secs

     total energy              =     -47.86457978 Ry
     estimated scf accuracy    <       0.00000003 Ry

     iteration # 19     ecut=    60.00 Ry     beta= 0.70
     Davidson diagonalization with overlap
     ethr =  1.92E-10,  avg # of iterations =  2.6

     negative rho (up, down):  1.787E-04 0.000E+00

     total cpu time spent up to now is       34.1 secs

     total energy              =     -47.86457978 Ry
     estimated scf accuracy    <          2.5E-09 Ry

     iteration # 20     ecut=    60.00 Ry     beta= 0.70
     Davidson diagonalization with overlap
     ethr =  1.53E-11,  avg # of iterations =  7.7

     negative rho (up, down):  1.787E-04 0.000E+00

     total cpu time spent up to now is       34.5 secs

     total energy              =     -47.86457979 Ry
     estimated scf accuracy    <       0.00000001 Ry

     iteration # 21     ecut=    60.00 Ry     beta= 0.70
     Davidson diagonalization with overlap
     ethr =  1.53E-11,  avg # of iterations =  1.2

     negative rho (up, down):  1.787E-04 0.000E+00

     total cpu time spent up to now is       34.8 secs

     total energy              =     -47.86457978 Ry
     estimated scf accuracy    <          5.7E-09 Ry

     iteration # 22     ecut=    60.00 Ry     beta= 0.70
     Davidson diagonalization with overlap
     ethr =  1.53E-11,  avg # of iterations =  4.0

     negative rho (up, down):  1.787E-04 0.000E+00

     total cpu time spent up to now is       35.1 secs

     total energy              =     -47.86457978 Ry
     estimated scf accuracy    <          5.1E-10 Ry

     iteration # 23     ecut=    60.00 Ry     beta= 0.70
     Davidson diagonalization with overlap
     ethr =  3.16E-12,  avg # of iterations =  2.7

     negative rho (up, down):  1.787E-04 0.000E+00

     total cpu time spent up to now is       35.3 secs

     End of self-consistent calculation

          k = 0.0000 0.0000 0.0000 (  5565 PWs)   bands (ev):

   -20.1901 -20.0783  -8.6864  -7.8690  -3.6754  -3.6754  -3.6695  -3.6695
     2.0042   2.4003   2.7562   4.0352

          k =-0.0000 0.1445 0.0000 (  5582 PWs)   bands (ev):

   -19.8196 -19.7105  -8.2378  -7.4329  -5.0540  -5.0377  -4.3807  -4.3692
     2.5169   2.9118   3.2588   4.5386

          k =-0.0000 0.2890 0.0000 (  5566 PWs)   bands (ev):

   -18.7175 -18.6163  -8.0607  -8.0260  -6.9192  -6.1575  -5.6916  -5.6756
     4.0529   4.4404   4.7642   6.0162

          k =-0.0000 0.4336 0.0000 (  5594 PWs)   bands (ev):

   -16.9211 -16.8328 -11.3468 -11.2934  -6.7005  -6.6825  -4.8706  -4.2193
     2.9871   3.4001   6.5936   6.9280

          k = 0.0000-0.5781 0.0000 (  5604 PWs)   bands (ev):

   -14.8894 -14.8486 -13.8833 -13.8521  -7.0634  -7.0449  -3.1344  -2.8439
     0.9176   1.2269   6.7771   6.9272

          k = 0.1252 0.2168 0.0000 (  5559 PWs)   bands (ev):

   -19.0833 -18.9795  -7.3530  -6.8476  -6.8329  -6.5753  -5.7839  -5.7735
     3.5417   3.9335   4.2642   5.5430

          k = 0.1252 0.3613 0.0000 (  5578 PWs)   bands (ev):

   -17.6333 -17.5398  -9.6444  -9.6054  -7.3078  -7.2844  -5.6477  -4.9384
     4.4823   4.7583   5.5856   5.9744

          k = 0.1252 0.5058 0.0000 (  5571 PWs)   bands (ev):

   -15.5521 -15.4753 -12.6568 -12.5993  -8.0770  -8.0490  -3.4404  -2.9374
     1.4594   1.8050   8.3236   8.4880

          k = 0.2503 0.4336 0.0000 (  5528 PWs)   bands (ev):

   -15.8835 -15.8028 -11.1456 -11.1187  -9.6062  -9.5861  -3.6617  -3.0627
     2.1063   2.3484   8.1136   8.4344

          k = 0.2503 0.5781 0.0000 (  5540 PWs)   bands (ev):

   -13.9425 -13.9056 -13.0737 -13.0569 -10.3968 -10.3602  -1.7876  -1.5089
     0.3422   0.3830  10.0454  10.0938

     the Fermi energy is    -0.4062 ev

!    total energy              =     -47.86457978 Ry
     estimated scf accuracy    <          7.9E-12 Ry
     smearing contrib. (-TS)   =       0.00000002 Ry
     internal energy E=F+TS    =     -47.86457981 Ry

     The total energy is F=E-TS. E is the sum of the following terms:
     one-electron contribution =    -524.83773461 Ry
     hartree contribution      =     266.02251326 Ry
     xc contribution           =     -16.65404948 Ry
     ewald contribution        =     227.60469103 Ry

     convergence has been achieved in  23 iterations

     negative rho (up, down):  1.787E-04 0.000E+00

     Forces acting on atoms (cartesian axes, Ry/au):

     atom    1 type  1   force =     0.00000000   -0.00000000    0.00072235
     atom    2 type  1   force =    -0.00000000    0.00000000    0.00074254
     atom    3 type  1   force =     0.00000000    0.00000000   -0.00072235
     atom    4 type  1   force =     0.00000000    0.00000000   -0.00074254

     Total force =     0.001465     Total SCF correction =     0.000010


     Computing stress (Cartesian axis) and pressure


     negative rho (up, down):  1.787E-04 0.000E+00
          total   stress  (Ry/bohr**3)                   (kbar)     P=       -1.11
   0.00000228   0.00000000   0.00000000            0.34        0.00        0.00
   0.00000000   0.00000228   0.00000000            0.00        0.34        0.00
   0.00000000   0.00000000  -0.00002721            0.00        0.00       -4.00

     Energy error            =      4.8E-06 Ry
     Gradient error          =      7.4E-04 Ry/Bohr
     Cell gradient error     =      3.4E-01 kbar

     number of scf cycles    =   3
     number of bfgs steps    =   2

     enthalpy           old  =     -47.8645749367 Ry
     enthalpy           new  =     -47.8645797846 Ry

     CASE: enthalpy          _new < enthalpy          _old

     new trust radius        =       0.0013740496 bohr
     new conv_thr            =            1.0E-11 Ry

     new unit-cell volume =    707.60994 a.u.^3 (   104.85698 Ang^3 )
     density =      0.76082 g/cm^3

CELL_PARAMETERS (alat=  4.65610675)
   0.998606268   0.000000000   0.000000000
  -0.499303134   0.864818396   0.000000000
   0.000000000   0.000000000   8.117194158

ATOMIC_POSITIONS (crystal)
C             0.0000000000        0.0000000000        0.4125961754
C             0.3333333330        0.6666666660        0.4125820836
C            -0.0000000000        0.0000000000        0.5874038246
C             0.6666666660        0.3333333330        0.5874179164



     Writing config-only to output data dir ../tmp/gr.save/
     NEW-OLD atomic charge density approx. for the potential

     Check: negative core charge=   -0.000004

     negative rho (up, down):  1.795E-04 0.000E+00
     extrapolated charge   15.99652, renormalised to   16.00000

     total cpu time spent up to now is       36.1 secs

     Self-consistent Calculation

     iteration #  1     ecut=    60.00 Ry     beta= 0.70
     Davidson diagonalization with overlap
     ethr =  1.00E-06,  avg # of iterations =  3.5

     Threshold (ethr) on eigenvalues was too large:
     Diagonalizing with lowered threshold

     Davidson diagonalization with overlap
     ethr =  2.12E-08,  avg # of iterations =  8.2

     negative rho (up, down):  1.794E-04 0.000E+00

     total cpu time spent up to now is       36.8 secs

     total energy              =     -47.86456007 Ry
     estimated scf accuracy    <       0.00001846 Ry

     iteration #  2     ecut=    60.00 Ry     beta= 0.70
     Davidson diagonalization with overlap
     ethr =  1.15E-07,  avg # of iterations =  5.1

     negative rho (up, down):  1.789E-04 0.000E+00

     total cpu time spent up to now is       37.2 secs

     total energy              =     -47.86457676 Ry
     estimated scf accuracy    <       0.00006263 Ry

     iteration #  3     ecut=    60.00 Ry     beta= 0.70
     Davidson diagonalization with overlap
     ethr =  1.15E-07,  avg # of iterations =  2.8

     negative rho (up, down):  1.789E-04 0.000E+00

     total cpu time spent up to now is       37.4 secs

     total energy              =     -47.86457990 Ry
     estimated scf accuracy    <       0.00000778 Ry

     iteration #  4     ecut=    60.00 Ry     beta= 0.70
     Davidson diagonalization with overlap
     ethr =  4.86E-08,  avg # of iterations =  3.1

     negative rho (up, down):  1.783E-04 0.000E+00

     total cpu time spent up to now is       37.7 secs

     WARNING: integrated charge=    16.00000160, expected=    16.00000000

     total energy              =     -47.86458234 Ry
     estimated scf accuracy    <       0.00000060 Ry

     iteration #  5     ecut=    60.00 Ry     beta= 0.70
     Davidson diagonalization with overlap
     ethr =  3.73E-09,  avg # of iterations =  4.5

     negative rho (up, down):  1.784E-04 0.000E+00

     total cpu time spent up to now is       38.0 secs

     WARNING: integrated charge=    16.00000161, expected=    16.00000000

     total energy              =     -47.86458284 Ry
     estimated scf accuracy    <       0.00000002 Ry

     iteration #  6     ecut=    60.00 Ry     beta= 0.70
     Davidson diagonalization with overlap
     ethr =  1.05E-10,  avg # of iterations =  9.9

     negative rho (up, down):  1.784E-04 0.000E+00

     total cpu time spent up to now is       38.6 secs

     WARNING: integrated charge=    16.00000161, expected=    16.00000000

     total energy              =     -47.86458291 Ry
     estimated scf accuracy    <       0.00000009 Ry

     iteration #  7     ecut=    60.00 Ry     beta= 0.70
     Davidson diagonalization with overlap
     ethr =  1.05E-10,  avg # of iterations =  2.6

     negative rho (up, down):  1.784E-04 0.000E+00

     total cpu time spent up to now is       38.8 secs

     total energy              =     -47.86458288 Ry
     estimated scf accuracy    <       0.00000003 Ry

     iteration #  8     ecut=    60.00 Ry     beta= 0.70
     Davidson diagonalization with overlap
     ethr =  1.05E-10,  avg # of iterations =  4.0

     negative rho (up, down):  1.784E-04 0.000E+00

     total cpu time spent up to now is       39.1 secs

     total energy              =     -47.86458289 Ry
     estimated scf accuracy    <          4.8E-09 Ry

     iteration #  9     ecut=    60.00 Ry     beta= 0.70
     Davidson diagonalization with overlap
     ethr =  2.97E-11,  avg # of iterations =  2.6

     negative rho (up, down):  1.784E-04 0.000E+00

     total cpu time spent up to now is       39.4 secs

     total energy              =     -47.86458289 Ry
     estimated scf accuracy    <          2.1E-09 Ry

     iteration # 10     ecut=    60.00 Ry     beta= 0.70
     Davidson diagonalization with overlap
     ethr =  1.34E-11,  avg # of iterations =  2.2

     negative rho (up, down):  1.784E-04 0.000E+00

     total cpu time spent up to now is       39.6 secs

     total energy              =     -47.86458289 Ry
     estimated scf accuracy    <          2.4E-09 Ry

     iteration # 11     ecut=    60.00 Ry     beta= 0.70
     Davidson diagonalization with overlap
     ethr =  1.34E-11,  avg # of iterations =  2.8

     negative rho (up, down):  1.784E-04 0.000E+00

     total cpu time spent up to now is       39.9 secs

     total energy              =     -47.86458289 Ry
     estimated scf accuracy    <          1.6E-10 Ry

     iteration # 12     ecut=    60.00 Ry     beta= 0.70
     Davidson diagonalization with overlap
     ethr =  9.92E-13,  avg # of iterations =  6.2

     negative rho (up, down):  1.784E-04 0.000E+00

     total cpu time spent up to now is       40.3 secs

     total energy              =     -47.86458289 Ry
     estimated scf accuracy    <          9.3E-11 Ry

     iteration # 13     ecut=    60.00 Ry     beta= 0.70
     Davidson diagonalization with overlap
     ethr =  5.79E-13,  avg # of iterations =  1.6

     negative rho (up, down):  1.784E-04 0.000E+00

     total cpu time spent up to now is       40.5 secs

     total energy              =     -47.86458289 Ry
     estimated scf accuracy    <          6.4E-11 Ry

     iteration # 14     ecut=    60.00 Ry     beta= 0.70
     Davidson diagonalization with overlap
     ethr =  4.00E-13,  avg # of iterations =  1.8

     negative rho (up, down):  1.784E-04 0.000E+00

     total cpu time spent up to now is       40.8 secs

     total energy              =     -47.86458289 Ry
     estimated scf accuracy    <          3.8E-11 Ry

     iteration # 15     ecut=    60.00 Ry     beta= 0.70
     Davidson diagonalization with overlap
     ethr =  2.37E-13,  avg # of iterations =  2.8

     negative rho (up, down):  1.784E-04 0.000E+00

     total cpu time spent up to now is       41.0 secs

     total energy              =     -47.86458289 Ry
     estimated scf accuracy    <          4.1E-11 Ry

     iteration # 16     ecut=    60.00 Ry     beta= 0.70
     Davidson diagonalization with overlap
     ethr =  2.37E-13,  avg # of iterations =  1.0

     negative rho (up, down):  1.784E-04 0.000E+00

     total cpu time spent up to now is       41.2 secs

     total energy              =     -47.86458289 Ry
     estimated scf accuracy    <          3.2E-11 Ry

     iteration # 17     ecut=    60.00 Ry     beta= 0.70
     Davidson diagonalization with overlap
     ethr =  2.01E-13,  avg # of iterations =  1.0

     negative rho (up, down):  1.784E-04 0.000E+00

     total cpu time spent up to now is       41.5 secs

     total energy              =     -47.86458289 Ry
     estimated scf accuracy    <          3.1E-11 Ry

     iteration # 18     ecut=    60.00 Ry     beta= 0.70
     Davidson diagonalization with overlap
     ethr =  1.92E-13,  avg # of iterations =  1.0

     negative rho (up, down):  1.784E-04 0.000E+00

     total cpu time spent up to now is       41.7 secs

     total energy              =     -47.86458289 Ry
     estimated scf accuracy    <          2.1E-11 Ry

     iteration # 19     ecut=    60.00 Ry     beta= 0.70
     Davidson diagonalization with overlap
     ethr =  1.31E-13,  avg # of iterations =  2.4

     negative rho (up, down):  1.784E-04 0.000E+00

     total cpu time spent up to now is       42.0 secs

     total energy              =     -47.86458289 Ry
     estimated scf accuracy    <          1.0E-11 Ry

     iteration # 20     ecut=    60.00 Ry     beta= 0.70
     Davidson diagonalization with overlap
     ethr =  1.00E-13,  avg # of iterations =  4.0

     negative rho (up, down):  1.784E-04 0.000E+00

     total cpu time spent up to now is       42.2 secs

     total energy              =     -47.86458289 Ry
     estimated scf accuracy    <          1.6E-11 Ry

     iteration # 21     ecut=    60.00 Ry     beta= 0.70
     Davidson diagonalization with overlap
     ethr =  1.00E-13,  avg # of iterations =  2.0

     negative rho (up, down):  1.784E-04 0.000E+00

     total cpu time spent up to now is       42.5 secs

     End of self-consistent calculation

          k = 0.0000 0.0000 0.0000 (  5565 PWs)   bands (ev):

   -20.1915 -20.0794  -8.6880  -7.8689  -3.6739  -3.6739  -3.6680  -3.6680
     2.0092   2.4015   2.7608   4.0435

          k =-0.0000 0.1445 0.0000 (  5582 PWs)   bands (ev):

   -19.8209 -19.7115  -8.2393  -7.4328  -5.0527  -5.0364  -4.3795  -4.3679
     2.5219   2.9131   3.2636   4.5470

          k =-0.0000 0.2891 0.0000 (  5566 PWs)   bands (ev):

   -18.7186 -18.6171  -8.0599  -8.0251  -6.9204  -6.1571  -5.6908  -5.6747
     4.0578   4.4418   4.7698   6.0247

          k =-0.0000 0.4336 0.0000 (  5594 PWs)   bands (ev):

   -16.9219 -16.8332 -11.3467 -11.2931  -6.6999  -6.6819  -4.8710  -4.2184
     2.9890   3.4028   6.5980   6.9315

          k = 0.0000-0.5782 0.0000 (  5604 PWs)   bands (ev):

   -14.8892 -14.8483 -13.8840 -13.8527  -7.0630  -7.0444  -3.1341  -2.8429
     0.9190   1.2288   6.7815   6.9320

          k = 0.1252 0.2168 0.0000 (  5559 PWs)   bands (ev):

   -19.0845 -18.9804  -7.3542  -6.8465  -6.8318  -6.5749  -5.7831  -5.7726
     3.5466   3.9349   4.2695   5.5517

          k = 0.1252 0.3613 0.0000 (  5578 PWs)   bands (ev):

   -17.6342 -17.5404  -9.6439  -9.6047  -7.3073  -7.2839  -5.6484  -4.9376
     4.4848   4.7615   5.5904   5.9760

          k = 0.1252 0.5059 0.0000 (  5571 PWs)   bands (ev):

   -15.5525 -15.4754 -12.6570 -12.5993  -8.0767  -8.0486  -3.4404  -2.9363
     1.4609   1.8072   8.3279   8.4921

          k = 0.2503 0.4336 0.0000 (  5528 PWs)   bands (ev):

   -15.8840 -15.8031 -11.1450 -11.1180  -9.6065  -9.5864  -3.6618  -3.0615
     2.1081   2.3508   8.1178   8.4360

          k = 0.2503 0.5782 0.0000 (  5540 PWs)   bands (ev):

   -13.9422 -13.9052 -13.0738 -13.0570 -10.3973 -10.3605  -1.7869  -1.5076
     0.3438   0.3848  10.0473  10.0962

     the Fermi energy is    -0.4047 ev

!    total energy              =     -47.86458289 Ry
     estimated scf accuracy    <          4.0E-13 Ry
     smearing contrib. (-TS)   =       0.00000002 Ry
     internal energy E=F+TS    =     -47.86458292 Ry

     The total energy is F=E-TS. E is the sum of the following terms:
     one-electron contribution =    -525.10446933 Ry
     hartree contribution      =     266.15662811 Ry
     xc contribution           =     -16.65506162 Ry
     ewald contribution        =     227.73831992 Ry

     convergence has been achieved in  21 iterations

     negative rho (up, down):  1.784E-04 0.000E+00

     Forces acting on atoms (cartesian axes, Ry/au):

     atom    1 type  1   force =     0.00000000    0.00000000    0.00071133
     atom    2 type  1   force =     0.00000000    0.00000000    0.00075811
     atom    3 type  1   force =     0.00000000    0.00000000   -0.00071133
     atom    4 type  1   force =     0.00000000   -0.00000000   -0.00075811

     Total force =     0.001470     Total SCF correction =     0.000002


     Computing stress (Cartesian axis) and pressure


     negative rho (up, down):  1.784E-04 0.000E+00
          total   stress  (Ry/bohr**3)                   (kbar)     P=       -0.80
   0.00000540   0.00000000   0.00000000            0.79        0.00        0.00
   0.00000000   0.00000540   0.00000000            0.00        0.79        0.00
  -0.00000000  -0.00000000  -0.00002712           -0.00       -0.00       -3.99

     Energy error            =      3.1E-06 Ry
     Gradient error          =      7.6E-04 Ry/Bohr
     Cell gradient error     =      7.9E-01 kbar

     number of scf cycles    =   4
     number of bfgs steps    =   3

     enthalpy           old  =     -47.8645797846 Ry
     enthalpy           new  =     -47.8645828933 Ry

     CASE: enthalpy          _new < enthalpy          _old


     WARNING: bfgs curvature condition failed, Theta= 0.920
     new trust radius        =       0.0015114546 bohr
     new conv_thr            =            1.0E-11 Ry

     new unit-cell volume =    707.51608 a.u.^3 (   104.84307 Ang^3 )
     density =      0.76092 g/cm^3

CELL_PARAMETERS (alat=  4.65610675)
   0.998540036   0.000000000   0.000000000
  -0.499270018   0.864761038   0.000000000
   0.000000000   0.000000000   8.117194158

ATOMIC_POSITIONS (crystal)
C             0.0000000000        0.0000000000        0.4126361667
C             0.3333333330        0.6666666660        0.4126212771
C            -0.0000000000        0.0000000000        0.5873638333
C             0.6666666660        0.3333333330        0.5873787229



     Writing config-only to output data dir ../tmp/gr.save/
     NEW-OLD atomic charge density approx. for the potential

     Check: negative core charge=   -0.000004

     negative rho (up, down):  1.791E-04 0.000E+00
     extrapolated charge   15.99788, renormalised to   16.00000

     total cpu time spent up to now is       43.3 secs

     Self-consistent Calculation

     iteration #  1     ecut=    60.00 Ry     beta= 0.70
     Davidson diagonalization with overlap
     ethr =  1.00E-06,  avg # of iterations =  2.7

     Threshold (ethr) on eigenvalues was too large:
     Diagonalizing with lowered threshold

     Davidson diagonalization with overlap
     ethr =  6.21E-09,  avg # of iterations = 11.0

     negative rho (up, down):  1.789E-04 0.000E+00

     total cpu time spent up to now is       44.1 secs

     total energy              =     -47.86457528 Ry
     estimated scf accuracy    <       0.00001012 Ry

     iteration #  2     ecut=    60.00 Ry     beta= 0.70
     Davidson diagonalization with overlap
     ethr =  6.33E-08,  avg # of iterations =  4.0

     negative rho (up, down):  1.786E-04 0.000E+00

     total cpu time spent up to now is       44.4 secs

     total energy              =     -47.86458217 Ry
     estimated scf accuracy    <       0.00003089 Ry

     iteration #  3     ecut=    60.00 Ry     beta= 0.70
     Davidson diagonalization with overlap
     ethr =  6.33E-08,  avg # of iterations =  3.0

     negative rho (up, down):  1.784E-04 0.000E+00

     total cpu time spent up to now is       44.7 secs

     total energy              =     -47.86458464 Ry
     estimated scf accuracy    <       0.00000253 Ry

     iteration #  4     ecut=    60.00 Ry     beta= 0.70
     Davidson diagonalization with overlap
     ethr =  1.58E-08,  avg # of iterations =  2.8

     negative rho (up, down):  1.783E-04 0.000E+00

     total cpu time spent up to now is       45.0 secs

     WARNING: integrated charge=    16.00000164, expected=    16.00000000

     total energy              =     -47.86458585 Ry
     estimated scf accuracy    <       0.00000007 Ry

     iteration #  5     ecut=    60.00 Ry     beta= 0.70
     Davidson diagonalization with overlap
     ethr =  4.56E-10,  avg # of iterations =  7.8

     negative rho (up, down):  1.783E-04 0.000E+00

     total cpu time spent up to now is       45.4 secs

     total energy              =     -47.86458601 Ry
     estimated scf accuracy    <       0.00000022 Ry

     iteration #  6     ecut=    60.00 Ry     beta= 0.70
     Davidson diagonalization with overlap
     ethr =  4.56E-10,  avg # of iterations =  2.2

     negative rho (up, down):  1.784E-04 0.000E+00

     total cpu time spent up to now is       45.7 secs

     total energy              =     -47.86458590 Ry
     estimated scf accuracy    <       0.00000005 Ry

     iteration #  7     ecut=    60.00 Ry     beta= 0.70
     Davidson diagonalization with overlap
     ethr =  3.29E-10,  avg # of iterations =  1.6

     negative rho (up, down):  1.782E-04 0.000E+00

     total cpu time spent up to now is       45.9 secs

     total energy              =     -47.86458601 Ry
     estimated scf accuracy    <       0.00000016 Ry

     iteration #  8     ecut=    60.00 Ry     beta= 0.70
     Davidson diagonalization with overlap
     ethr =  3.29E-10,  avg # of iterations =  2.6

     negative rho (up, down):  1.782E-04 0.000E+00

     total cpu time spent up to now is       46.2 secs

     total energy              =     -47.86458619 Ry
     estimated scf accuracy    <       0.00000002 Ry

     iteration #  9     ecut=    60.00 Ry     beta= 0.70
     Davidson diagonalization with overlap
     ethr =  1.48E-10,  avg # of iterations =  4.2

     negative rho (up, down):  1.782E-04 0.000E+00

     total cpu time spent up to now is       46.5 secs

     total energy              =     -47.86458608 Ry
     estimated scf accuracy    <       0.00000002 Ry

     iteration # 10     ecut=    60.00 Ry     beta= 0.70
     Davidson diagonalization with overlap
     ethr =  1.17E-10,  avg # of iterations =  1.3

     negative rho (up, down):  1.782E-04 0.000E+00

     total cpu time spent up to now is       46.7 secs

     total energy              =     -47.86458621 Ry
     estimated scf accuracy    <          9.2E-09 Ry

     iteration # 11     ecut=    60.00 Ry     beta= 0.70
     Davidson diagonalization with overlap
     ethr =  5.73E-11,  avg # of iterations =  1.2

     negative rho (up, down):  1.782E-04 0.000E+00

     total cpu time spent up to now is       46.9 secs

     total energy              =     -47.86458608 Ry
     estimated scf accuracy    <       0.00000001 Ry

     iteration # 12     ecut=    60.00 Ry     beta= 0.70
     Davidson diagonalization with overlap
     ethr =  5.73E-11,  avg # of iterations =  1.0

     negative rho (up, down):  1.782E-04 0.000E+00

     total cpu time spent up to now is       47.2 secs

     total energy              =     -47.86458602 Ry
     estimated scf accuracy    <          8.4E-09 Ry

     iteration # 13     ecut=    60.00 Ry     beta= 0.70
     Davidson diagonalization with overlap
     ethr =  5.23E-11,  avg # of iterations =  1.1

     negative rho (up, down):  1.783E-04 0.000E+00

     total cpu time spent up to now is       47.4 secs

     total energy              =     -47.86458601 Ry
     estimated scf accuracy    <          2.8E-09 Ry

     iteration # 14     ecut=    60.00 Ry     beta= 0.70
     Davidson diagonalization with overlap
     ethr =  1.74E-11,  avg # of iterations =  6.3

     negative rho (up, down):  1.782E-04 0.000E+00

     total cpu time spent up to now is       47.8 secs

     total energy              =     -47.86458601 Ry
     estimated scf accuracy    <       0.00000006 Ry

     iteration # 15     ecut=    60.00 Ry     beta= 0.70
     Davidson diagonalization with overlap
     ethr =  1.74E-11,  avg # of iterations =  4.2

     negative rho (up, down):  1.782E-04 0.000E+00

     total cpu time spent up to now is       48.1 secs

     total energy              =     -47.86458621 Ry
     estimated scf accuracy    <          2.3E-09 Ry

     iteration # 16     ecut=    60.00 Ry     beta= 0.70
     Davidson diagonalization with overlap
     ethr =  1.43E-11,  avg # of iterations =  4.0

     negative rho (up, down):  1.783E-04 0.000E+00

     total cpu time spent up to now is       48.4 secs

     total energy              =     -47.86458601 Ry
     estimated scf accuracy    <          3.2E-09 Ry

     iteration # 17     ecut=    60.00 Ry     beta= 0.70
     Davidson diagonalization with overlap
     ethr =  1.43E-11,  avg # of iterations =  3.9

     negative rho (up, down):  1.782E-04 0.000E+00

     total cpu time spent up to now is       48.7 secs

     total energy              =     -47.86458602 Ry
     estimated scf accuracy    <          7.2E-09 Ry

     iteration # 18     ecut=    60.00 Ry     beta= 0.70
     Davidson diagonalization with overlap
     ethr =  1.43E-11,  avg # of iterations =  3.4

     negative rho (up, down):  1.782E-04 0.000E+00

     total cpu time spent up to now is       49.0 secs

     total energy              =     -47.86458602 Ry
     estimated scf accuracy    <          7.2E-11 Ry

     iteration # 19     ecut=    60.00 Ry     beta= 0.70
     Davidson diagonalization with overlap
     ethr =  4.48E-13,  avg # of iterations =  6.8

     negative rho (up, down):  1.782E-04 0.000E+00

     total cpu time spent up to now is       49.4 secs

     total energy              =     -47.86458607 Ry
     estimated scf accuracy    <          9.0E-11 Ry

     iteration # 20     ecut=    60.00 Ry     beta= 0.70
     Davidson diagonalization with overlap
     ethr =  4.48E-13,  avg # of iterations =  2.4

     negative rho (up, down):  1.782E-04 0.000E+00

     total cpu time spent up to now is       49.7 secs

     total energy              =     -47.86458602 Ry
     estimated scf accuracy    <          2.4E-10 Ry

     iteration # 21     ecut=    60.00 Ry     beta= 0.70
     Davidson diagonalization with overlap
     ethr =  4.48E-13,  avg # of iterations =  3.7

     negative rho (up, down):  1.782E-04 0.000E+00

     total cpu time spent up to now is       49.9 secs

     End of self-consistent calculation

          k = 0.0000 0.0000 0.0000 (  5565 PWs)   bands (ev):

   -20.1924 -20.0799  -8.6894  -7.8684  -3.6729  -3.6729  -3.6670  -3.6670
     2.0142   2.4103   2.7614   4.0464

          k =-0.0000 0.1445 0.0000 (  5582 PWs)   bands (ev):

   -19.8218 -19.7120  -8.2406  -7.4322  -5.0519  -5.0355  -4.3787  -4.3671
     2.5270   2.9219   3.2643   4.5500

          k =-0.0000 0.2891 0.0000 (  5566 PWs)   bands (ev):

   -18.7194 -18.6175  -8.0594  -8.0245  -6.9214  -6.1564  -5.6902  -5.6741
     4.0632   4.4507   4.7705   6.0278

          k =-0.0000 0.4336 0.0000 (  5594 PWs)   bands (ev):

   -16.9223 -16.8334 -11.3466 -11.2928  -6.6996  -6.6814  -4.8716  -4.2175
     2.9899   3.4048   6.6036   6.9357

          k = 0.0000-0.5782 0.0000 (  5604 PWs)   bands (ev):

   -14.8891 -14.8480 -13.8845 -13.8530  -7.0626  -7.0440  -3.1341  -2.8422
     0.9197   1.2302   6.7841   6.9351

          k = 0.1252 0.2168 0.0000 (  5559 PWs)   bands (ev):

   -19.0853 -18.9808  -7.3553  -6.8458  -6.8310  -6.5743  -5.7825  -5.7720
     3.5519   3.9438   4.2702   5.5549

          k = 0.1252 0.3614 0.0000 (  5578 PWs)   bands (ev):

   -17.6348 -17.5406  -9.6435  -9.6042  -7.3071  -7.2835  -5.6492  -4.9368
     4.4862   4.7637   5.5960   5.9850

          k = 0.1252 0.5059 0.0000 (  5571 PWs)   bands (ev):

   -15.5527 -15.4753 -12.6571 -12.5992  -8.0765  -8.0483  -3.4406  -2.9352
     1.4617   1.8088   8.3306   8.4949

          k = 0.2504 0.4336 0.0000 (  5528 PWs)   bands (ev):

   -15.8843 -15.8031 -11.1446 -11.1175  -9.6067  -9.5865  -3.6622  -3.0604
     2.1091   2.3525   8.1238   8.4444

          k = 0.2504 0.5782 0.0000 (  5540 PWs)   bands (ev):

   -13.9420 -13.9049 -13.0739 -13.0570 -10.3975 -10.3606  -1.7867  -1.5066
     0.3448   0.3859  10.0488  10.0983

     the Fermi energy is    -0.4037 ev

!    total energy              =     -47.86458602 Ry
     estimated scf accuracy    <          1.5E-12 Ry
     smearing contrib. (-TS)   =       0.00000002 Ry
     internal energy E=F+TS    =     -47.86458604 Ry

     The total energy is F=E-TS. E is the sum of the following terms:
     one-electron contribution =    -525.34237419 Ry
     hartree contribution      =     266.27607251 Ry
     xc contribution           =     -16.65569761 Ry
     ewald contribution        =     227.85741325 Ry

     convergence has been achieved in  21 iterations

     negative rho (up, down):  1.782E-04 0.000E+00

     Forces acting on atoms (cartesian axes, Ry/au):

     atom    1 type  1   force =    -0.00000000    0.00000000    0.00071305
     atom    2 type  1   force =     0.00000000    0.00000000    0.00075890
     atom    3 type  1   force =     0.00000000    0.00000000   -0.00071305
     atom    4 type  1   force =     0.00000000    0.00000000   -0.00075890

     Total force =     0.001473     Total SCF correction =     0.000002


     Computing stress (Cartesian axis) and pressure


     negative rho (up, down):  1.782E-04 0.000E+00
          total   stress  (Ry/bohr**3)                   (kbar)     P=       -0.61
   0.00000731   0.00000000   0.00000000            1.08        0.00        0.00
   0.00000000   0.00000731   0.00000000            0.00        1.08        0.00
   0.00000000   0.00000000  -0.00002700            0.00        0.00       -3.97

     Energy error            =      3.1E-06 Ry
     Gradient error          =      7.6E-04 Ry/Bohr
     Cell gradient error     =      1.1E+00 kbar

     number of scf cycles    =   5
     number of bfgs steps    =   4

     enthalpy           old  =     -47.8645828933 Ry
     enthalpy           new  =     -47.8645860158 Ry

     CASE: enthalpy          _new < enthalpy          _old

     new trust radius        =       0.0022671818 bohr
     new conv_thr            =            1.0E-11 Ry

     new unit-cell volume =    707.42314 a.u.^3 (   104.82929 Ang^3 )
     density =      0.76102 g/cm^3

CELL_PARAMETERS (alat=  4.65610675)
   0.998474450   0.000000000   0.000000000
  -0.499237225   0.864704239   0.000000000
   0.000000000   0.000000000   8.117194158

ATOMIC_POSITIONS (crystal)
C             0.0000000000        0.0000000000        0.4126961538
C             0.3333333330        0.6666666660        0.4126799149
C            -0.0000000000        0.0000000000        0.5873038462
C             0.6666666660        0.3333333330        0.5873200851



     Writing config-only to output data dir ../tmp/gr.save/
     NEW-OLD atomic charge density approx. for the potential

     Check: negative core charge=   -0.000004

     negative rho (up, down):  1.792E-04 0.000E+00
     extrapolated charge   15.99790, renormalised to   16.00000

     total cpu time spent up to now is       50.7 secs

     Self-consistent Calculation

     iteration #  1     ecut=    60.00 Ry     beta= 0.70
     Davidson diagonalization with overlap
     ethr =  1.00E-06,  avg # of iterations =  4.9

     Threshold (ethr) on eigenvalues was too large:
     Diagonalizing with lowered threshold

[...]
     Davidson diagonalization with overlap
     c_bands:  1 eigenvalues not converged
     c_bands:  1 eigenvalues not converged
     c_bands:  1 eigenvalues not converged
     c_bands:  2 eigenvalues not converged
     ethr =  5.28E-06,  avg # of iterations = 17.9

     negative rho (up, down):  1.913E-04 0.000E+00

     total cpu time spent up to now is      170.2 secs

     WARNING: integrated charge=    16.00000302, expected=    16.00000000

     total energy              =     -47.86468076 Ry
     estimated scf accuracy    <       0.01788637 Ry

     iteration #  7     ecut=    60.00 Ry     beta= 0.70
     Davidson diagonalization with overlap
     c_bands:  2 eigenvalues not converged
     ethr =  5.28E-06,  avg # of iterations =  8.9

     negative rho (up, down):  1.884E-04 0.000E+00

     total cpu time spent up to now is      170.6 secs

     WARNING: integrated charge=    16.00000281, expected=    16.00000000

     total energy              =     -47.86469933 Ry
     estimated scf accuracy    <       0.00254770 Ry

     iteration #  8     ecut=    60.00 Ry     beta= 0.70
     Davidson diagonalization with overlap
     ethr =  5.28E-06,  avg # of iterations =  4.4

     negative rho (up, down):  1.818E-04 0.000E+00

     total cpu time spent up to now is      170.9 secs

     WARNING: integrated charge=    16.00000263, expected=    16.00000000

     total energy              =     -47.86460960 Ry
     estimated scf accuracy    <       0.00060147 Ry

     iteration #  9     ecut=    60.00 Ry     beta= 0.70
     Davidson diagonalization with overlap
     ethr =  3.76E-06,  avg # of iterations =  5.2

     negative rho (up, down):  1.816E-04 0.000E+00

     total cpu time spent up to now is      171.3 secs

     WARNING: integrated charge=    16.00000262, expected=    16.00000000

     total energy              =     -47.86488657 Ry
     estimated scf accuracy    <       0.00001234 Ry

     iteration # 10     ecut=    60.00 Ry     beta= 0.70
     Davidson diagonalization with overlap
     ethr =  7.71E-08,  avg # of iterations =  7.1

     negative rho (up, down):  1.811E-04 0.000E+00

     total cpu time spent up to now is      171.7 secs

     WARNING: integrated charge=    16.00000260, expected=    16.00000000

     total energy              =     -47.86493624 Ry
     estimated scf accuracy    <       0.00001320 Ry

     iteration # 11     ecut=    60.00 Ry     beta= 0.70
     Davidson diagonalization with overlap
     ethr =  7.71E-08,  avg # of iterations =  1.6

     negative rho (up, down):  1.790E-04 0.000E+00

     total cpu time spent up to now is      171.9 secs

     WARNING: integrated charge=    16.00000252, expected=    16.00000000

     total energy              =     -47.86493300 Ry
     estimated scf accuracy    <       0.00001243 Ry

     iteration # 12     ecut=    60.00 Ry     beta= 0.70
     Davidson diagonalization with overlap
     ethr =  7.71E-08,  avg # of iterations =  3.2

     negative rho (up, down):  1.786E-04 0.000E+00

     total cpu time spent up to now is      172.2 secs

     WARNING: integrated charge=    16.00000251, expected=    16.00000000

     total energy              =     -47.86494063 Ry
     estimated scf accuracy    <       0.00000510 Ry

     iteration # 13     ecut=    60.00 Ry     beta= 0.70
     Davidson diagonalization with overlap
     ethr =  3.19E-08,  avg # of iterations =  5.5

     negative rho (up, down):  1.783E-04 0.000E+00

     total cpu time spent up to now is      172.6 secs

     WARNING: integrated charge=    16.00000251, expected=    16.00000000

     total energy              =     -47.86494028 Ry
     estimated scf accuracy    <       0.00002281 Ry

     iteration # 14     ecut=    60.00 Ry     beta= 0.70
     Davidson diagonalization with overlap
     ethr =  3.19E-08,  avg # of iterations =  1.3

     negative rho (up, down):  1.775E-04 0.000E+00

     total cpu time spent up to now is      172.8 secs

     WARNING: integrated charge=    16.00000252, expected=    16.00000000

     total energy              =     -47.86493453 Ry
     estimated scf accuracy    <       0.00001380 Ry

     iteration # 15     ecut=    60.00 Ry     beta= 0.70
     Davidson diagonalization with overlap
     ethr =  3.19E-08,  avg # of iterations =  2.8

     negative rho (up, down):  1.770E-04 0.000E+00

     total cpu time spent up to now is      173.0 secs

     WARNING: integrated charge=    16.00000251, expected=    16.00000000

     total energy              =     -47.86493497 Ry
     estimated scf accuracy    <       0.00000311 Ry

     iteration # 16     ecut=    60.00 Ry     beta= 0.70
     Davidson diagonalization with overlap
     ethr =  1.95E-08,  avg # of iterations =  4.5

     negative rho (up, down):  1.775E-04 0.000E+00

     total cpu time spent up to now is      173.4 secs

     WARNING: integrated charge=    16.00000251, expected=    16.00000000

     total energy              =     -47.86493579 Ry
     estimated scf accuracy    <       0.00000063 Ry

     iteration # 17     ecut=    60.00 Ry     beta= 0.70
     Davidson diagonalization with overlap
     ethr =  3.92E-09,  avg # of iterations =  4.4

     negative rho (up, down):  1.775E-04 0.000E+00

     total cpu time spent up to now is      173.7 secs

     WARNING: integrated charge=    16.00000252, expected=    16.00000000

     total energy              =     -47.86493599 Ry
     estimated scf accuracy    <       0.00000185 Ry

     iteration # 18     ecut=    60.00 Ry     beta= 0.70
     Davidson diagonalization with overlap
     ethr =  3.92E-09,  avg # of iterations =  1.4

     negative rho (up, down):  1.775E-04 0.000E+00

     total cpu time spent up to now is      173.9 secs

     WARNING: integrated charge=    16.00000252, expected=    16.00000000

     total energy              =     -47.86493558 Ry
     estimated scf accuracy    <       0.00000091 Ry

     iteration # 19     ecut=    60.00 Ry     beta= 0.70
     Davidson diagonalization with overlap
     ethr =  3.92E-09,  avg # of iterations =  2.0

     negative rho (up, down):  1.775E-04 0.000E+00

     total cpu time spent up to now is      174.2 secs

     WARNING: integrated charge=    16.00000251, expected=    16.00000000

     total energy              =     -47.86493564 Ry
     estimated scf accuracy    <       0.00000022 Ry

     iteration # 20     ecut=    60.00 Ry     beta= 0.70
     Davidson diagonalization with overlap
     ethr =  1.34E-09,  avg # of iterations =  4.2

     negative rho (up, down):  1.775E-04 0.000E+00

     total cpu time spent up to now is      174.5 secs

     WARNING: integrated charge=    16.00000252, expected=    16.00000000

     total energy              =     -47.86493577 Ry
     estimated scf accuracy    <          1.3E-09 Ry

     iteration # 21     ecut=    60.00 Ry     beta= 0.70
     Davidson diagonalization with overlap
     ethr =  7.92E-12,  avg # of iterations = 14.0

     negative rho (up, down):  1.774E-04 0.000E+00

     total cpu time spent up to now is      175.2 secs

     WARNING: integrated charge=    16.00000251, expected=    16.00000000

     total energy              =     -47.86493571 Ry
     estimated scf accuracy    <          2.5E-09 Ry

     iteration # 22     ecut=    60.00 Ry     beta= 0.70
     Davidson diagonalization with overlap
     ethr =  7.92E-12,  avg # of iterations =  4.3

     negative rho (up, down):  1.774E-04 0.000E+00

     total cpu time spent up to now is      175.5 secs

     WARNING: integrated charge=    16.00000251, expected=    16.00000000

     total energy              =     -47.86493572 Ry
     estimated scf accuracy    <          7.1E-09 Ry

     iteration # 23     ecut=    60.00 Ry     beta= 0.70
     Davidson diagonalization with overlap
     ethr =  7.92E-12,  avg # of iterations = 12.7

     negative rho (up, down):  1.774E-04 0.000E+00

     total cpu time spent up to now is      176.2 secs

     WARNING: integrated charge=    16.00000251, expected=    16.00000000

     total energy              =     -47.86493574 Ry
     estimated scf accuracy    <       0.00000007 Ry

     iteration # 24     ecut=    60.00 Ry     beta= 0.70
     Davidson diagonalization with overlap
     ethr =  7.92E-12,  avg # of iterations =  2.8

     negative rho (up, down):  1.774E-04 0.000E+00

     total cpu time spent up to now is      176.5 secs

     WARNING: integrated charge=    16.00000251, expected=    16.00000000

     total energy              =     -47.86493573 Ry
     estimated scf accuracy    <       0.00000008 Ry

     iteration # 25     ecut=    60.00 Ry     beta= 0.70
     Davidson diagonalization with overlap
     ethr =  7.92E-12,  avg # of iterations =  2.0

     negative rho (up, down):  1.775E-04 0.000E+00

     total cpu time spent up to now is      176.7 secs

     WARNING: integrated charge=    16.00000251, expected=    16.00000000

     total energy              =     -47.86493572 Ry
     estimated scf accuracy    <       0.00000006 Ry

     iteration # 26     ecut=    60.00 Ry     beta= 0.70
     Davidson diagonalization with overlap
     ethr =  7.92E-12,  avg # of iterations =  4.6

     negative rho (up, down):  1.774E-04 0.000E+00

     total cpu time spent up to now is      177.1 secs

     WARNING: integrated charge=    16.00000251, expected=    16.00000000

     total energy              =     -47.86493572 Ry
     estimated scf accuracy    <       0.00000004 Ry

     iteration # 27     ecut=    60.00 Ry     beta= 0.70
     Davidson diagonalization with overlap
     ethr =  7.92E-12,  avg # of iterations =  1.7

     negative rho (up, down):  1.774E-04 0.000E+00

     total cpu time spent up to now is      177.3 secs

     WARNING: integrated charge=    16.00000251, expected=    16.00000000

     total energy              =     -47.86493572 Ry
     estimated scf accuracy    <       0.00000005 Ry

     iteration # 28     ecut=    60.00 Ry     beta= 0.70
     Davidson diagonalization with overlap
     ethr =  7.92E-12,  avg # of iterations =  1.1

     negative rho (up, down):  1.774E-04 0.000E+00

     total cpu time spent up to now is      177.5 secs

     WARNING: integrated charge=    16.00000251, expected=    16.00000000

     total energy              =     -47.86493572 Ry
     estimated scf accuracy    <       0.00000005 Ry

     iteration # 29     ecut=    60.00 Ry     beta= 0.70
     Davidson diagonalization with overlap
     ethr =  7.92E-12,  avg # of iterations =  1.8

     negative rho (up, down):  1.775E-04 0.000E+00

     total cpu time spent up to now is      177.8 secs

     WARNING: integrated charge=    16.00000251, expected=    16.00000000

     total energy              =     -47.86493571 Ry
     estimated scf accuracy    <       0.00000004 Ry

     iteration # 30     ecut=    60.00 Ry     beta= 0.70
     Davidson diagonalization with overlap
     ethr =  7.92E-12,  avg # of iterations = 12.2

     negative rho (up, down):  1.775E-04 0.000E+00

     total cpu time spent up to now is      178.5 secs

     WARNING: integrated charge=    16.00000251, expected=    16.00000000

     total energy              =     -47.86493571 Ry
     estimated scf accuracy    <          7.6E-09 Ry

     iteration # 31     ecut=    60.00 Ry     beta= 0.70
     Davidson diagonalization with overlap
     ethr =  7.92E-12,  avg # of iterations =  4.2

     negative rho (up, down):  1.774E-04 0.000E+00

     total cpu time spent up to now is      178.8 secs

     WARNING: integrated charge=    16.00000251, expected=    16.00000000

     total energy              =     -47.86493571 Ry
     estimated scf accuracy    <          2.3E-10 Ry

     iteration # 32     ecut=    60.00 Ry     beta= 0.70
     Davidson diagonalization with overlap
     ethr =  1.43E-12,  avg # of iterations =  4.4

     negative rho (up, down):  1.774E-04 0.000E+00

     total cpu time spent up to now is      179.1 secs

     WARNING: integrated charge=    16.00000251, expected=    16.00000000

     total energy              =     -47.86493571 Ry
     estimated scf accuracy    <          9.9E-11 Ry

     iteration # 33     ecut=    60.00 Ry     beta= 0.70
     Davidson diagonalization with overlap
     ethr =  6.16E-13,  avg # of iterations =  4.2

     negative rho (up, down):  1.774E-04 0.000E+00

     total cpu time spent up to now is      179.4 secs

     WARNING: integrated charge=    16.00000251, expected=    16.00000000

     total energy              =     -47.86493571 Ry
     estimated scf accuracy    <          2.6E-10 Ry

     iteration # 34     ecut=    60.00 Ry     beta= 0.70
     Davidson diagonalization with overlap
     ethr =  6.16E-13,  avg # of iterations =  1.0

     negative rho (up, down):  1.774E-04 0.000E+00

     total cpu time spent up to now is      179.6 secs

     WARNING: integrated charge=    16.00000251, expected=    16.00000000

     total energy              =     -47.86493571 Ry
     estimated scf accuracy    <          3.2E-10 Ry

     iteration # 35     ecut=    60.00 Ry     beta= 0.70
     Davidson diagonalization with overlap
     ethr =  6.16E-13,  avg # of iterations =  1.5

     negative rho (up, down):  1.774E-04 0.000E+00

     total cpu time spent up to now is      179.9 secs

     WARNING: integrated charge=    16.00000251, expected=    16.00000000

     total energy              =     -47.86493571 Ry
     estimated scf accuracy    <          4.9E-11 Ry

     iteration # 36     ecut=    60.00 Ry     beta= 0.70
     Davidson diagonalization with overlap
     ethr =  3.09E-13,  avg # of iterations =  5.2

     negative rho (up, down):  1.774E-04 0.000E+00

     total cpu time spent up to now is      180.2 secs

     WARNING: integrated charge=    16.00000251, expected=    16.00000000

     total energy              =     -47.86493571 Ry
     estimated scf accuracy    <          5.6E-11 Ry

     iteration # 37     ecut=    60.00 Ry     beta= 0.70
     Davidson diagonalization with overlap
     ethr =  3.09E-13,  avg # of iterations =  1.0

     negative rho (up, down):  1.774E-04 0.000E+00

     total cpu time spent up to now is      180.4 secs

     End of self-consistent calculation

          k = 0.0000 0.0000 0.0000 (  5541 PWs)   bands (ev):

   -20.2346 -20.0551  -8.8323  -7.7285  -3.6849  -3.6849  -3.6737  -3.6737
     2.0249   2.3927   2.8076   4.0115

          k =-0.0000 0.1445 0.0000 (  5556 PWs)   bands (ev):

   -19.8634 -19.6878  -8.3827  -7.2946  -5.0677  -5.0386  -4.3926  -4.3713
     2.5379   2.9045   3.3115   4.5148

          k =-0.0000 0.2890 0.0000 (  5562 PWs)   bands (ev):

   -18.7591 -18.5954  -8.0813  -8.0215  -7.0601  -6.0265  -5.7053  -5.6761
     4.0748   4.4334   4.8206   5.9883

          k =-0.0000 0.4336 0.0000 (  5568 PWs)   bands (ev):

   -16.9590 -16.8147 -11.3738 -11.2839  -6.7150  -6.6824  -4.9996  -4.1090
     2.8951   3.4698   6.6202   6.8919

          k = 0.0000-0.5781 0.0000 (  5564 PWs)   bands (ev):

   -14.9139 -14.8462 -13.9009 -13.8498  -7.0781  -7.0445  -3.2202  -2.8115
     0.8816   1.2759   6.7226   6.9572

          k = 0.1252 0.2168 0.0000 (  5547 PWs)   bands (ev):

   -19.1257 -18.9580  -7.4955  -6.8611  -6.8352  -6.4414  -5.7952  -5.7765
     3.5632   3.9265   4.3194   5.5187

          k = 0.1252 0.3613 0.0000 (  5558 PWs)   bands (ev):

   -17.6727 -17.5206  -9.6666  -9.6000  -7.3242  -7.2832  -5.7833  -4.8166
     4.4053   4.8007   5.6093   5.9681

          k = 0.1252 0.5058 0.0000 (  5555 PWs)   bands (ev):

   -15.5866 -15.4601 -12.6850 -12.5891  -8.0952  -8.0463  -3.5519  -2.8585
     1.3896   1.8601   8.2687   8.5244

          k = 0.2503 0.4336 0.0000 (  5524 PWs)   bands (ev):

   -15.9191 -15.7866 -11.1641 -11.1182  -9.6212  -9.5872  -3.7849  -2.9613
     2.0343   2.3832   8.1412   8.4257

          k = 0.2503 0.5781 0.0000 (  5530 PWs)   bands (ev):

   -13.9656 -13.9039 -13.0866 -13.0594 -10.4180 -10.3559  -1.8762  -1.4837
     0.3236   0.4031  10.0107  10.1648

     the Fermi energy is    -0.3997 ev

     WARNING: integrated charge=    16.00000251, expected=    16.00000000

!    total energy              =     -47.86493571 Ry
     estimated scf accuracy    <          3.2E-12 Ry
     smearing contrib. (-TS)   =       0.00000004 Ry
     internal energy E=F+TS    =     -47.86493575 Ry

     The total energy is F=E-TS. E is the sum of the following terms:
     one-electron contribution =    -546.98084447 Ry
     hartree contribution      =     277.09218253 Ry
     xc contribution           =     -16.65994280 Ry
     ewald contribution        =     238.68366899 Ry

     convergence has been achieved in  37 iterations

     negative rho (up, down):  1.774E-04 0.000E+00

     Forces acting on atoms (cartesian axes, Ry/au):

     atom    1 type  1   force =     0.00000000   -0.00000000   -0.00005788
     atom    2 type  1   force =     0.00000000   -0.00000000   -0.00023880
     atom    3 type  1   force =     0.00000000    0.00000000    0.00005788
     atom    4 type  1   force =     0.00000000    0.00000000    0.00023880

     Total force =     0.000347     Total SCF correction =     0.000003


     Computing stress (Cartesian axis) and pressure


     negative rho (up, down):  1.774E-04 0.000E+00
          total   stress  (Ry/bohr**3)                   (kbar)     P=       -0.43
   0.00000001   0.00000000  -0.00000000            0.00        0.00       -0.00
   0.00000000   0.00000001  -0.00000000            0.00        0.00       -0.00
   0.00000000   0.00000000  -0.00000885            0.00        0.00       -1.30


     Writing all to output data dir ../tmp/gr.save/
 
     init_run     :      9.38s CPU      9.50s WALL (       2 calls)
     electrons    :    125.87s CPU    151.58s WALL (      26 calls)
     update_pot   :      4.85s CPU      5.27s WALL (      24 calls)
     forces       :      3.83s CPU      4.19s WALL (      26 calls)
     stress       :      9.47s CPU     10.07s WALL (      26 calls)

     Called by init_run:
     wfcinit      :      0.13s CPU      0.17s WALL (       2 calls)
     potinit      :      8.89s CPU      8.91s WALL (       2 calls)
     hinit0       :      0.22s CPU      0.28s WALL (       2 calls)

     Called by electrons:
     c_bands      :     90.46s CPU    108.00s WALL (     447 calls)
     sum_band     :     13.27s CPU     15.68s WALL (     447 calls)
     v_of_rho     :     30.35s CPU     35.43s WALL (     460 calls)
     newd         :      1.10s CPU      2.12s WALL (     460 calls)
     mix_rho      :      0.55s CPU      0.61s WALL (     447 calls)
     vdW_kernel   :      8.71s CPU      8.71s WALL (       1 calls)

     Called by c_bands:
     init_us_2    :      1.09s CPU      1.30s WALL (    9480 calls)
     init_us_2:cp :      1.08s CPU      1.29s WALL (    9480 calls)
     cegterg      :     86.48s CPU    103.45s WALL (    4503 calls)

     Called by *egterg:
     cdiaghg      :      2.50s CPU      2.99s WALL (   25093 calls)
     h_psi        :     73.02s CPU     87.32s WALL (   25506 calls)
     s_psi        :      1.62s CPU      1.97s WALL (   25506 calls)
     g_psi        :      0.37s CPU      0.44s WALL (   20983 calls)

     Called by h_psi:
     h_psi:calbec :      2.57s CPU      3.14s WALL (   25506 calls)
     vloc_psi     :     68.63s CPU     81.97s WALL (   25506 calls)
     add_vuspsi   :      1.66s CPU      2.03s WALL (   25506 calls)

     General routines
     calbec       :      3.35s CPU      4.07s WALL (   31276 calls)
     fft          :      8.89s CPU     12.25s WALL (   32491 calls)
     ffts         :      0.13s CPU      0.15s WALL (     447 calls)
     fftw         :     74.40s CPU     88.87s WALL (  436134 calls)
 
     Parallel routines
 
     PWSCF        :   2m33.63s CPU   3m 1.01s WALL

 
   This run was terminated on:   0:27: 9   2Feb2022            

=------------------------------------------------------------------------------=
   JOB DONE.
=------------------------------------------------------------------------------=
