
     Program PWSCF v.7.0 starts on  2Feb2022 at  0:21:58 

     This program is part of the open-source Quantum ESPRESSO suite
     for quantum simulation of materials; please cite
         "P. Giannozzi et al., J. Phys.:Condens. Matter 21 395502 (2009);
         "P. Giannozzi et al., J. Phys.:Condens. Matter 29 465901 (2017);
         "P. Giannozzi et al., J. Chem. Phys. 152 154105 (2020);
          URL http://www.quantum-espresso.org", 
     in publications or presentations arising from this work. More details at
     http://www.quantum-espresso.org/quote

     Parallel version (MPI), running on     4 processors

     MPI processes distributed on     1 nodes
     R & G space division:  proc/nbgrp/npool/nimage =       4
     236561 MiB available memory on the printing compute node when the environment starts
 
     Waiting for input...
     Reading input from standard input

     Current dimensions of program PWSCF are:
     Max number of different atomic species (ntypx) = 10
     Max number of k-points (npk) =  40000
     Max angular momentum in pseudopotentials (lmaxx) =  4

     IMPORTANT: XC functional enforced from input :
     Exchange-correlation= VDW-DF2
                           (   1   4  13   0   2   0   0)
     Any further DFT definition will be discarded
     Please, verify this is what you really want


     Subspace diagonalization in iterative solution of the eigenvalue problem:
     a serial algorithm will be used

 
     Parallelization info
     --------------------
     sticks:   dense  smooth     PW     G-vecs:    dense   smooth      PW
     Min          90      90     27                11152    11152    1895
     Max          91      91     28                11175    11175    1922
     Sum         361     361    109                44659    44659    7615
 
     Using Slab Decomposition
 


     bravais-lattice index     =            4
     lattice parameter (alat)  =       4.6561  a.u.
     unit-cell volume          =     709.5865 (a.u.)^3
     number of atoms/cell      =            4
     number of atomic types    =            1
     number of electrons       =        16.00
     number of Kohn-Sham states=           12
     kinetic-energy cutoff     =      60.0000  Ry
     charge density cutoff     =     240.0000  Ry
     scf convergence threshold =      1.0E-09
     mixing beta               =       0.7000
     number of iterations used =            8  plain     mixing
     energy convergence thresh.=      1.0E-05
     force convergence thresh. =      1.0E-04
     press convergence thresh. =      5.0E-02
     Exchange-correlation= VDW-DF2
                           (   1   4  13   0   2   0   0)
     nstep                     =           50


     celldm(1)=   4.656107  celldm(2)=   0.000000  celldm(3)=   8.117194
     celldm(4)=   0.000000  celldm(5)=   0.000000  celldm(6)=   0.000000

     crystal axes: (cart. coord. in units of alat)
               a(1) = (   1.000000   0.000000   0.000000 )  
               a(2) = (  -0.500000   0.866025   0.000000 )  
               a(3) = (   0.000000   0.000000   8.117194 )  

     reciprocal axes: (cart. coord. in units 2 pi/alat)
               b(1) = (  1.000000  0.577350  0.000000 )  
               b(2) = (  0.000000  1.154701  0.000000 )  
               b(3) = (  0.000000  0.000000  0.123195 )  


     PseudoPot. # 1 for C  read from file:
     ../pseudo/C.pbe-n-rrkjus_psl.0.1.UPF
     MD5 check sum: 96a6a315177d77e6c95bf6fd3870f9e3
     Pseudo is Ultrasoft + core correction, Zval =  4.0
     Generated using &quot;atomic&quot; code by A. Dal Corso  v.6.3MaX
     Using radial grid of 1073 points,  4 beta functions with: 
                l(1) =   0
                l(2) =   0
                l(3) =   1
                l(4) =   1
     Q(r) pseudized with 0 coefficients 


     atomic species   valence    mass     pseudopotential
        C              4.00    12.01070     C ( 1.00)

     12 Sym. Ops., with inversion, found



   Cartesian axes

     site n.     atom                  positions (alat units)
         1           C   tau(   1) = (   0.0000000   0.0000000   3.3483426  )
         2           C   tau(   2) = (   0.0000000   0.5773503   3.3483426  )
         3           C   tau(   3) = (   0.0000000   0.0000000   4.7688516  )
         4           C   tau(   4) = (   0.5000000   0.2886751   4.7688516  )

     number of k points=    10  Marzari-Vanderbilt smearing, width (Ry)=  0.0200
                       cart. coord. in units 2pi/alat
        k(    1) = (   0.0000000   0.0000000   0.0000000), wk =   0.0312500
        k(    2) = (   0.0000000   0.1443376   0.0000000), wk =   0.1875000
        k(    3) = (   0.0000000   0.2886751   0.0000000), wk =   0.1875000
        k(    4) = (   0.0000000   0.4330127   0.0000000), wk =   0.1875000
        k(    5) = (   0.0000000  -0.5773503   0.0000000), wk =   0.0937500
        k(    6) = (   0.1250000   0.2165064   0.0000000), wk =   0.1875000
        k(    7) = (   0.1250000   0.3608439   0.0000000), wk =   0.3750000
        k(    8) = (   0.1250000   0.5051815   0.0000000), wk =   0.3750000
        k(    9) = (   0.2500000   0.4330127   0.0000000), wk =   0.1875000
        k(   10) = (   0.2500000   0.5773503   0.0000000), wk =   0.1875000

     Dense  grid:    44659 G-vectors     FFT dimensions: (  24,  24, 192)

     Estimated max dynamical RAM per process >      19.86 MB

     Estimated total dynamical RAM >      79.43 MB

     Check: negative core charge=   -0.000004

     Initial potential from superposition of free atoms

     starting charge      15.9998, renormalised to      16.0000

     negative rho (up, down):  1.330E-04 0.000E+00


     %%%%%%%%%%%%%%%%%%%%%%%%%%%%%%%%%%%%%%%%%%%%%%%%%%%%%%%%%%%%%%%%%%%%%%%%
     %                                                                      %
     % You are using vdW-DF, which was implemented by the Thonhauser group. %
     % Please cite the following two papers that made this development      %
     % possible and the two reviews that describe the various versions:     %
     %                                                                      %
     %   T. Thonhauser et al., PRL 115, 136402 (2015).                      %
     %   T. Thonhauser et al., PRB 76, 125112 (2007).                       %
     %   K. Berland et al., Rep. Prog. Phys. 78, 066501 (2015).             %
     %   D.C. Langreth et al., J. Phys.: Condens. Matter 21, 084203 (2009). %
     %                                                                      %
     %                                                                      %
     % If you are calculating the stress with vdW-DF, please also cite:     %
     %                                                                      %
     %   R. Sabatini et al., J. Phys.: Condens. Matter 24, 424209 (2012).   %
     %                                                                      %
     %%%%%%%%%%%%%%%%%%%%%%%%%%%%%%%%%%%%%%%%%%%%%%%%%%%%%%%%%%%%%%%%%%%%%%%%


     Starting wfcs are   16 randomized atomic wfcs

     total cpu time spent up to now is        9.3 secs

     Self-consistent Calculation

     iteration #  1     ecut=    60.00 Ry     beta= 0.70
     Davidson diagonalization with overlap
     ethr =  1.00E-02,  avg # of iterations =  3.9

     Threshold (ethr) on eigenvalues was too large:
     Diagonalizing with lowered threshold

     Davidson diagonalization with overlap
     ethr =  8.07E-04,  avg # of iterations =  6.7

     negative rho (up, down):  3.757E-05 0.000E+00

     total cpu time spent up to now is       10.0 secs

     total energy              =     -48.27408170 Ry
     estimated scf accuracy    <       0.42032892 Ry

     iteration #  2     ecut=    60.00 Ry     beta= 0.70
     Davidson diagonalization with overlap
     ethr =  2.63E-03,  avg # of iterations =  1.4

     negative rho (up, down):  1.339E-04 0.000E+00

     total cpu time spent up to now is       10.2 secs

     total energy              =     -48.27834076 Ry
     estimated scf accuracy    <       0.02247892 Ry

     iteration #  3     ecut=    60.00 Ry     beta= 0.70
     Davidson diagonalization with overlap
     c_bands:  2 eigenvalues not converged
     c_bands:  3 eigenvalues not converged
     c_bands:  4 eigenvalues not converged
     c_bands:  4 eigenvalues not converged
     c_bands:  4 eigenvalues not converged
     c_bands:  2 eigenvalues not converged
     c_bands:  2 eigenvalues not converged
     ethr =  1.40E-04,  avg # of iterations = 17.4

     negative rho (up, down):  1.375E-04 0.000E+00

     total cpu time spent up to now is       11.1 secs

     total energy              =     -48.36610377 Ry
     estimated scf accuracy    <       0.03939869 Ry

     iteration #  4     ecut=    60.00 Ry     beta= 0.70
     Davidson diagonalization with overlap
     ethr =  1.40E-04,  avg # of iterations =  4.3

     negative rho (up, down):  1.365E-04 0.000E+00

     total cpu time spent up to now is       11.4 secs

     WARNING: integrated charge=    15.99999103, expected=    16.00000000

     total energy              =     -48.37105470 Ry
     estimated scf accuracy    <       0.05151724 Ry

     iteration #  5     ecut=    60.00 Ry     beta= 0.70
     Davidson diagonalization with overlap
     ethr =  1.40E-04,  avg # of iterations =  1.2

     negative rho (up, down):  1.032E-04 0.000E+00

     total cpu time spent up to now is       11.6 secs

     WARNING: integrated charge=    15.99997407, expected=    16.00000000

     total energy              =     -48.34599693 Ry
     estimated scf accuracy    <       0.05767747 Ry

     iteration #  6     ecut=    60.00 Ry     beta= 0.70
     Davidson diagonalization with overlap
     ethr =  1.40E-04,  avg # of iterations =  1.7

     negative rho (up, down):  1.057E-04 0.000E+00

     total cpu time spent up to now is       11.9 secs

     WARNING: integrated charge=    15.99997472, expected=    16.00000000

     total energy              =     -48.34129920 Ry
     estimated scf accuracy    <       0.02284314 Ry

     iteration #  7     ecut=    60.00 Ry     beta= 0.70
     Davidson diagonalization with overlap
     ethr =  1.40E-04,  avg # of iterations =  1.7

     negative rho (up, down):  1.018E-04 0.000E+00

     total cpu time spent up to now is       12.1 secs

     WARNING: integrated charge=    15.99997154, expected=    16.00000000

     total energy              =     -48.34479337 Ry
     estimated scf accuracy    <       0.01195260 Ry

     iteration #  8     ecut=    60.00 Ry     beta= 0.70
     Davidson diagonalization with overlap
     ethr =  7.47E-05,  avg # of iterations =  1.7

     negative rho (up, down):  1.192E-04 0.000E+00

     total cpu time spent up to now is       12.3 secs

     WARNING: integrated charge=    15.99998535, expected=    16.00000000

     total energy              =     -48.33986821 Ry
     estimated scf accuracy    <       0.01489821 Ry

     iteration #  9     ecut=    60.00 Ry     beta= 0.70
     Davidson diagonalization with overlap
     ethr =  7.47E-05,  avg # of iterations =  3.4

     negative rho (up, down):  1.379E-04 0.000E+00

     total cpu time spent up to now is       12.6 secs

     WARNING: integrated charge=    15.99999593, expected=    16.00000000

     total energy              =     -48.33953663 Ry
     estimated scf accuracy    <       0.00443093 Ry

     iteration # 10     ecut=    60.00 Ry     beta= 0.70
     Davidson diagonalization with overlap
     ethr =  2.77E-05,  avg # of iterations =  7.4

     negative rho (up, down):  1.328E-04 0.000E+00

     total cpu time spent up to now is       12.9 secs

     WARNING: integrated charge=    15.99998908, expected=    16.00000000

     total energy              =     -48.34208270 Ry
     estimated scf accuracy    <       0.00038768 Ry

     iteration # 11     ecut=    60.00 Ry     beta= 0.70
     Davidson diagonalization with overlap
     c_bands:  2 eigenvalues not converged
     c_bands:  1 eigenvalues not converged
     ethr =  2.42E-06,  avg # of iterations = 13.7

     negative rho (up, down):  1.319E-04 0.000E+00

     total cpu time spent up to now is       13.4 secs

     WARNING: integrated charge=    15.99998737, expected=    16.00000000

     total energy              =     -48.34281770 Ry
     estimated scf accuracy    <       0.00135279 Ry

     iteration # 12     ecut=    60.00 Ry     beta= 0.70
     Davidson diagonalization with overlap
     ethr =  2.42E-06,  avg # of iterations =  4.5

     negative rho (up, down):  1.636E-04 0.000E+00

     total cpu time spent up to now is       13.7 secs

     WARNING: integrated charge=    16.00000247, expected=    16.00000000

     total energy              =     -48.34164357 Ry
     estimated scf accuracy    <       0.00230155 Ry

     iteration # 13     ecut=    60.00 Ry     beta= 0.70
     Davidson diagonalization with overlap
     ethr =  2.42E-06,  avg # of iterations =  6.4

     negative rho (up, down):  1.667E-04 0.000E+00

     total cpu time spent up to now is       14.1 secs

     WARNING: integrated charge=    16.00000208, expected=    16.00000000

     total energy              =     -48.34196992 Ry
     estimated scf accuracy    <       0.00002267 Ry

     iteration # 14     ecut=    60.00 Ry     beta= 0.70
     Davidson diagonalization with overlap
     ethr =  1.42E-07,  avg # of iterations =  6.5

     negative rho (up, down):  1.658E-04 0.000E+00

     total cpu time spent up to now is       14.5 secs

     WARNING: integrated charge=    16.00000222, expected=    16.00000000

     total energy              =     -48.34204370 Ry
     estimated scf accuracy    <       0.00006314 Ry

     iteration # 15     ecut=    60.00 Ry     beta= 0.70
     Davidson diagonalization with overlap
     ethr =  1.42E-07,  avg # of iterations =  1.7

     negative rho (up, down):  1.728E-04 0.000E+00

     total cpu time spent up to now is       14.8 secs

     WARNING: integrated charge=    16.00000169, expected=    16.00000000

     total energy              =     -48.34200257 Ry
     estimated scf accuracy    <       0.00006267 Ry

     iteration # 16     ecut=    60.00 Ry     beta= 0.70
     Davidson diagonalization with overlap
     ethr =  1.42E-07,  avg # of iterations =  4.0

     negative rho (up, down):  1.751E-04 0.000E+00

     total cpu time spent up to now is       15.0 secs

     WARNING: integrated charge=    16.00000185, expected=    16.00000000

     total energy              =     -48.34201927 Ry
     estimated scf accuracy    <       0.00000093 Ry

     iteration # 17     ecut=    60.00 Ry     beta= 0.70
     Davidson diagonalization with overlap
     ethr =  5.79E-09,  avg # of iterations = 13.6

     negative rho (up, down):  1.761E-04 0.000E+00

     total cpu time spent up to now is       15.8 secs

     WARNING: integrated charge=    16.00000188, expected=    16.00000000

     total energy              =     -48.34202808 Ry
     estimated scf accuracy    <       0.00003906 Ry

     iteration # 18     ecut=    60.00 Ry     beta= 0.70
     Davidson diagonalization with overlap
     ethr =  5.79E-09,  avg # of iterations =  1.9

     negative rho (up, down):  1.760E-04 0.000E+00

     total cpu time spent up to now is       16.0 secs

     WARNING: integrated charge=    16.00000177, expected=    16.00000000

     total energy              =     -48.34200518 Ry
     estimated scf accuracy    <       0.00002931 Ry

     iteration # 19     ecut=    60.00 Ry     beta= 0.70
     Davidson diagonalization with overlap
     ethr =  5.79E-09,  avg # of iterations = 11.9

     negative rho (up, down):  1.755E-04 0.000E+00

     total cpu time spent up to now is       16.7 secs

     WARNING: integrated charge=    16.00000178, expected=    16.00000000

     total energy              =     -48.34201552 Ry
     estimated scf accuracy    <       0.00000831 Ry

     iteration # 20     ecut=    60.00 Ry     beta= 0.70
     Davidson diagonalization with overlap
     ethr =  5.79E-09,  avg # of iterations =  4.2

     negative rho (up, down):  1.757E-04 0.000E+00

     total cpu time spent up to now is       17.0 secs

     WARNING: integrated charge=    16.00000176, expected=    16.00000000

     total energy              =     -48.34201552 Ry
     estimated scf accuracy    <       0.00000167 Ry

     iteration # 21     ecut=    60.00 Ry     beta= 0.70
     Davidson diagonalization with overlap
     ethr =  5.79E-09,  avg # of iterations =  2.6

     negative rho (up, down):  1.756E-04 0.000E+00

     total cpu time spent up to now is       17.2 secs

     WARNING: integrated charge=    16.00000179, expected=    16.00000000

     total energy              =     -48.34201577 Ry
     estimated scf accuracy    <       0.00000074 Ry

     iteration # 22     ecut=    60.00 Ry     beta= 0.70
     Davidson diagonalization with overlap
     ethr =  4.60E-09,  avg # of iterations =  1.1

     negative rho (up, down):  1.757E-04 0.000E+00

     total cpu time spent up to now is       17.5 secs

     WARNING: integrated charge=    16.00000179, expected=    16.00000000

     total energy              =     -48.34201538 Ry
     estimated scf accuracy    <       0.00000085 Ry

     iteration # 23     ecut=    60.00 Ry     beta= 0.70
     Davidson diagonalization with overlap
     ethr =  4.60E-09,  avg # of iterations =  2.9

     negative rho (up, down):  1.753E-04 0.000E+00

     total cpu time spent up to now is       17.7 secs

     WARNING: integrated charge=    16.00000181, expected=    16.00000000

     total energy              =     -48.34201551 Ry
     estimated scf accuracy    <       0.00000009 Ry

     iteration # 24     ecut=    60.00 Ry     beta= 0.70
     Davidson diagonalization with overlap
     ethr =  5.55E-10,  avg # of iterations =  7.4

     negative rho (up, down):  1.753E-04 0.000E+00

     total cpu time spent up to now is       18.2 secs

     WARNING: integrated charge=    16.00000181, expected=    16.00000000

     total energy              =     -48.34201580 Ry
     estimated scf accuracy    <       0.00000013 Ry

     iteration # 25     ecut=    60.00 Ry     beta= 0.70
     Davidson diagonalization with overlap
     ethr =  5.55E-10,  avg # of iterations =  1.3

     negative rho (up, down):  1.756E-04 0.000E+00

     total cpu time spent up to now is       18.4 secs

     WARNING: integrated charge=    16.00000179, expected=    16.00000000

     total energy              =     -48.34201566 Ry
     estimated scf accuracy    <       0.00000011 Ry

     iteration # 26     ecut=    60.00 Ry     beta= 0.70
     Davidson diagonalization with overlap
     ethr =  5.55E-10,  avg # of iterations =  4.7

     negative rho (up, down):  1.756E-04 0.000E+00

     total cpu time spent up to now is       18.7 secs

     WARNING: integrated charge=    16.00000179, expected=    16.00000000

     total energy              =     -48.34201574 Ry
     estimated scf accuracy    <       0.00000013 Ry

     iteration # 27     ecut=    60.00 Ry     beta= 0.70
     Davidson diagonalization with overlap
     ethr =  5.55E-10,  avg # of iterations =  1.0

     negative rho (up, down):  1.754E-04 0.000E+00

     total cpu time spent up to now is       19.0 secs

     WARNING: integrated charge=    16.00000179, expected=    16.00000000

     total energy              =     -48.34201573 Ry
     estimated scf accuracy    <       0.00000005 Ry

     iteration # 28     ecut=    60.00 Ry     beta= 0.70
     Davidson diagonalization with overlap
     ethr =  3.06E-10,  avg # of iterations =  4.0

     negative rho (up, down):  1.754E-04 0.000E+00

     total cpu time spent up to now is       19.3 secs

     WARNING: integrated charge=    16.00000179, expected=    16.00000000

     total energy              =     -48.34201575 Ry
     estimated scf accuracy    <          3.2E-09 Ry

     iteration # 29     ecut=    60.00 Ry     beta= 0.70
     Davidson diagonalization with overlap
     ethr =  2.02E-11,  avg # of iterations =  4.4

     negative rho (up, down):  1.754E-04 0.000E+00

     total cpu time spent up to now is       19.6 secs

     WARNING: integrated charge=    16.00000179, expected=    16.00000000

     total energy              =     -48.34201575 Ry
     estimated scf accuracy    <          1.6E-09 Ry

     iteration # 30     ecut=    60.00 Ry     beta= 0.70
     Davidson diagonalization with overlap
     ethr =  9.80E-12,  avg # of iterations =  2.0

     negative rho (up, down):  1.755E-04 0.000E+00

     total cpu time spent up to now is       19.8 secs

     WARNING: integrated charge=    16.00000180, expected=    16.00000000

     total energy              =     -48.34201573 Ry
     estimated scf accuracy    <          1.4E-09 Ry

     iteration # 31     ecut=    60.00 Ry     beta= 0.70
     Davidson diagonalization with overlap
     ethr =  8.71E-12,  avg # of iterations =  4.1

     negative rho (up, down):  1.755E-04 0.000E+00

     total cpu time spent up to now is       20.1 secs

     End of self-consistent calculation

          k = 0.0000 0.0000 0.0000 (  5565 PWs)   bands (ev):

   -20.0908 -19.9794  -8.5611  -7.7390  -3.8281  -3.8281  -3.8223  -3.8223
     1.8431   2.1772   2.6140   3.8433

          k = 0.0000 0.1443 0.0000 (  5582 PWs)   bands (ev):

   -19.7241 -19.6155  -8.1155  -7.3063  -5.1682  -5.1525  -4.5051  -4.4940
     2.3494   2.6840   3.1212   4.3480

          k = 0.0000 0.2887 0.0000 (  5566 PWs)   bands (ev):

   -18.6343 -18.5337  -8.1078  -8.0741  -6.8062  -6.0413  -5.7769  -5.7613
     3.8649   4.1959   4.6424   5.8426

          k = 0.0000 0.4330 0.0000 (  5594 PWs)   bands (ev):

   -16.8624 -16.7749 -11.3327 -11.2805  -6.7631  -6.7455  -4.7748  -4.1224
     3.0357   3.4451   6.3738   6.7314

          k = 0.0000-0.5774 0.0000 (  5604 PWs)   bands (ev):

   -14.9081 -14.8678 -13.7799 -13.7492  -7.1189  -7.1008  -3.0604  -2.7684
     1.0000   1.3046   6.9801   7.1312

          k = 0.1250 0.2165 0.0000 (  5559 PWs)   bands (ev):

   -18.9959 -18.8926  -7.2368  -6.9349  -6.9205  -6.4555  -5.8474  -5.8373
     3.3609   3.6954   4.1360   5.3558

          k = 0.1250 0.3608 0.0000 (  5578 PWs)   bands (ev):

   -17.5637 -17.4709  -9.6750  -9.6372  -7.3317  -7.3094  -5.5445  -4.8330
     4.5027   4.7794   5.3767   5.7183

          k = 0.1250 0.5052 0.0000 (  5571 PWs)   bands (ev):

   -15.5207 -15.4453 -12.6196 -12.5640  -8.0907  -8.0637  -3.3589  -2.8560
     1.5230   1.8641   8.3384   8.4813

          k = 0.2500 0.4330 0.0000 (  5528 PWs)   bands (ev):

   -15.8411 -15.7614 -11.1886 -11.1621  -9.5328  -9.5135  -3.5756  -2.9760
     2.1464   2.3889   7.8575   8.1268

          k = 0.2500 0.5774 0.0000 (  5540 PWs)   bands (ev):

   -13.9667 -13.9303 -13.0392 -13.0247 -10.3129 -10.2789  -1.7214  -1.4416
     0.3992   0.4438  10.0281  10.1287

     the Fermi energy is    -0.3437 ev

     WARNING: integrated charge=    16.00000180, expected=    16.00000000

!    total energy              =     -48.34201575 Ry
     estimated scf accuracy    <          5.7E-10 Ry
     smearing contrib. (-TS)   =       0.00000003 Ry
     internal energy E=F+TS    =     -48.34201578 Ry

     The total energy is F=E-TS. E is the sum of the following terms:
     one-electron contribution =    -523.27426918 Ry
     hartree contribution      =     265.30849643 Ry
     xc contribution           =     -17.18228578 Ry
     ewald contribution        =     226.80604275 Ry

     convergence has been achieved in  31 iterations

     negative rho (up, down):  1.755E-04 0.000E+00

     Forces acting on atoms (cartesian axes, Ry/au):

     atom    1 type  1   force =     0.00000000    0.00000000   -0.00016436
     atom    2 type  1   force =     0.00000000    0.00000000   -0.00067917
     atom    3 type  1   force =     0.00000000    0.00000000    0.00016436
     atom    4 type  1   force =     0.00000000    0.00000000    0.00067917

     Total force =     0.000988     Total SCF correction =     0.000001


     Computing stress (Cartesian axis) and pressure


     negative rho (up, down):  1.755E-04 0.000E+00
          total   stress  (Ry/bohr**3)                   (kbar)     P=       24.03
   0.00024430  -0.00000000   0.00000000           35.94       -0.00        0.00
  -0.00000000   0.00024430   0.00000000           -0.00       35.94        0.00
  -0.00000000  -0.00000000   0.00000152           -0.00       -0.00        0.22


     BFGS Geometry Optimization
     Energy error            =      0.0E+00 Ry
     Gradient error          =      6.8E-04 Ry/Bohr
     Cell gradient error     =      3.6E+01 kbar

     number of scf cycles    =   1
     number of bfgs steps    =   0

     enthalpy           new  =     -48.3420157534 Ry

     new trust radius        =       0.0325389209 bohr
     new conv_thr            =       0.0000000010 Ry

     new unit-cell volume =    718.28072 a.u.^3 (   106.43822 Ang^3 )
     density =      0.74951 g/cm^3

CELL_PARAMETERS (alat=  4.65610675)
   1.006107598  -0.000000000   0.000000000
  -0.503053799   0.871314739   0.000000000
   0.000000000   0.000000000   8.117194158

ATOMIC_POSITIONS (crystal)
C             0.0000000000        0.0000000000        0.4124956512
C             0.3333333330        0.6666666660        0.4124820300
C             0.0000000000        0.0000000000        0.5875043488
C             0.6666666660        0.3333333330        0.5875179700



     Writing config-only to output data dir ../tmp/gr.save/
     NEW-OLD atomic charge density approx. for the potential

     Check: negative core charge=   -0.000003

     negative rho (up, down):  1.565E-04 0.000E+00
     extrapolated charge   16.19367, renormalised to   16.00000

     total cpu time spent up to now is       20.9 secs

     Self-consistent Calculation

     iteration #  1     ecut=    60.00 Ry     beta= 0.70
     Davidson diagonalization with overlap
     c_bands:  1 eigenvalues not converged
     c_bands:  4 eigenvalues not converged
     c_bands:  2 eigenvalues not converged
     c_bands:  3 eigenvalues not converged
     c_bands:  2 eigenvalues not converged
     ethr =  1.00E-06,  avg # of iterations = 24.6

     total cpu time spent up to now is       22.3 secs

     total energy              =     -40.11015387 Ry
     estimated scf accuracy    <       8.48519758 Ry

     iteration #  2     ecut=    60.00 Ry     beta= 0.70
     Davidson diagonalization with overlap
     ethr =  1.00E-02,  avg # of iterations = 10.7

     total cpu time spent up to now is       22.8 secs

     total energy              =     -49.09396204 Ry
     estimated scf accuracy    <       7.53728903 Ry

     iteration #  3     ecut=    60.00 Ry     beta= 0.70
     Davidson diagonalization with overlap
     ethr =  1.00E-02,  avg # of iterations =  2.8

     total cpu time spent up to now is       23.0 secs

     WARNING: integrated charge=    16.00000171, expected=    16.00000000

     total energy              =     -49.13912941 Ry
     estimated scf accuracy    <       1.71829031 Ry

     iteration #  4     ecut=    60.00 Ry     beta= 0.70
     Davidson diagonalization with overlap
     ethr =  1.00E-02,  avg # of iterations =  1.1

     total cpu time spent up to now is       23.3 secs

     WARNING: integrated charge=    16.00000514, expected=    16.00000000

     total energy              =     -48.37662115 Ry
     estimated scf accuracy    <       1.05506686 Ry

     iteration #  5     ecut=    60.00 Ry     beta= 0.70
     Davidson diagonalization with overlap
     ethr =  6.59E-03,  avg # of iterations =  2.3

     total cpu time spent up to now is       23.5 secs

     WARNING: integrated charge=    16.00000411, expected=    16.00000000

     total energy              =     -48.44005001 Ry
     estimated scf accuracy    <       0.17230582 Ry

     iteration #  6     ecut=    60.00 Ry     beta= 0.70
     Davidson diagonalization with overlap
     ethr =  1.08E-03,  avg # of iterations =  5.4

     total cpu time spent up to now is       23.8 secs

     WARNING: integrated charge=    16.00000274, expected=    16.00000000

     total energy              =     -48.54254722 Ry
     estimated scf accuracy    <       0.17669152 Ry

     iteration #  7     ecut=    60.00 Ry     beta= 0.70
     Davidson diagonalization with overlap
     ethr =  1.08E-03,  avg # of iterations =  1.2

     total cpu time spent up to now is       24.0 secs

     WARNING: integrated charge=    16.00000265, expected=    16.00000000

     total energy              =     -48.53634923 Ry
     estimated scf accuracy    <       0.26541242 Ry

     iteration #  8     ecut=    60.00 Ry     beta= 0.70
     Davidson diagonalization with overlap
     ethr =  1.08E-03,  avg # of iterations =  1.0

     total cpu time spent up to now is       24.3 secs

     WARNING: integrated charge=    16.00000218, expected=    16.00000000

     total energy              =     -48.49492997 Ry
     estimated scf accuracy    <       0.25432075 Ry

     iteration #  9     ecut=    60.00 Ry     beta= 0.70
     Davidson diagonalization with overlap
     ethr =  1.08E-03,  avg # of iterations =  1.0

     total cpu time spent up to now is       24.5 secs

     WARNING: integrated charge=    16.00000241, expected=    16.00000000

     total energy              =     -48.35497083 Ry
     estimated scf accuracy    <       0.20700760 Ry

     iteration # 10     ecut=    60.00 Ry     beta= 0.70
     Davidson diagonalization with overlap
     ethr =  1.08E-03,  avg # of iterations =  1.8

     negative rho (up, down):  2.924E-04 0.000E+00

     total cpu time spent up to now is       24.7 secs

     WARNING: integrated charge=    16.00000251, expected=    16.00000000

     total energy              =     -48.32749201 Ry
     estimated scf accuracy    <       0.03798817 Ry

     iteration # 11     ecut=    60.00 Ry     beta= 0.70
     Davidson diagonalization with overlap
     c_bands:  1 eigenvalues not converged
     ethr =  2.37E-04,  avg # of iterations = 14.2

     negative rho (up, down):  2.921E-04 0.000E+00

     total cpu time spent up to now is       25.2 secs

     WARNING: integrated charge=    16.00000192, expected=    16.00000000

     total energy              =     -48.34355608 Ry
     estimated scf accuracy    <       0.00528142 Ry

     iteration # 12     ecut=    60.00 Ry     beta= 0.70
     Davidson diagonalization with overlap
     c_bands:  1 eigenvalues not converged
     ethr =  3.30E-05,  avg # of iterations =  8.9

     negative rho (up, down):  2.680E-04 0.000E+00

     total cpu time spent up to now is       25.6 secs

     WARNING: integrated charge=    16.00000218, expected=    16.00000000

     total energy              =     -48.34642778 Ry
     estimated scf accuracy    <       0.00653100 Ry

     iteration # 13     ecut=    60.00 Ry     beta= 0.70
     Davidson diagonalization with overlap
     ethr =  3.30E-05,  avg # of iterations =  1.6

     negative rho (up, down):  1.505E-04 0.000E+00

     total cpu time spent up to now is       25.8 secs

     WARNING: integrated charge=    16.00000268, expected=    16.00000000

     total energy              =     -48.34841903 Ry
     estimated scf accuracy    <       0.00870170 Ry

     iteration # 14     ecut=    60.00 Ry     beta= 0.70
     Davidson diagonalization with overlap
     ethr =  3.30E-05,  avg # of iterations =  1.4

     negative rho (up, down):  1.874E-04 0.000E+00

     total cpu time spent up to now is       26.1 secs

     WARNING: integrated charge=    16.00000312, expected=    16.00000000

     total energy              =     -48.34942556 Ry
     estimated scf accuracy    <       0.01264116 Ry

     iteration # 15     ecut=    60.00 Ry     beta= 0.70
     Davidson diagonalization with overlap
     ethr =  3.30E-05,  avg # of iterations =  1.5

     negative rho (up, down):  1.894E-04 0.000E+00

     total cpu time spent up to now is       26.3 secs

     WARNING: integrated charge=    16.00000308, expected=    16.00000000

     total energy              =     -48.34790590 Ry
     estimated scf accuracy    <       0.01473556 Ry

     iteration # 16     ecut=    60.00 Ry     beta= 0.70
     Davidson diagonalization with overlap
     ethr =  3.30E-05,  avg # of iterations =  1.0

     negative rho (up, down):  1.682E-04 0.000E+00

     total cpu time spent up to now is       26.5 secs

     WARNING: integrated charge=    16.00000310, expected=    16.00000000

     total energy              =     -48.34894793 Ry
     estimated scf accuracy    <       0.01192698 Ry

     iteration # 17     ecut=    60.00 Ry     beta= 0.70
     Davidson diagonalization with overlap
     ethr =  3.30E-05,  avg # of iterations =  1.1

     negative rho (up, down):  1.699E-04 0.000E+00

     total cpu time spent up to now is       26.7 secs

     WARNING: integrated charge=    16.00000315, expected=    16.00000000

     total energy              =     -48.34768681 Ry
     estimated scf accuracy    <       0.01441931 Ry

     iteration # 18     ecut=    60.00 Ry     beta= 0.70
     Davidson diagonalization with overlap
     ethr =  3.30E-05,  avg # of iterations =  1.0

     negative rho (up, down):  5.980E-04 0.000E+00

     total cpu time spent up to now is       27.0 secs

     WARNING: integrated charge=    16.00000276, expected=    16.00000000

     total energy              =     -48.33882064 Ry
     estimated scf accuracy    <       0.01199148 Ry

     iteration # 19     ecut=    60.00 Ry     beta= 0.70
     Davidson diagonalization with overlap
     ethr =  3.30E-05,  avg # of iterations =  5.9

     negative rho (up, down):  2.778E-04 0.000E+00

     total cpu time spent up to now is       27.3 secs

     WARNING: integrated charge=    16.00000276, expected=    16.00000000

     total energy              =     -48.34296426 Ry
     estimated scf accuracy    <       0.00227116 Ry

     iteration # 20     ecut=    60.00 Ry     beta= 0.70
     Davidson diagonalization with overlap
     ethr =  1.42E-05,  avg # of iterations =  2.7

     negative rho (up, down):  2.157E-04 0.000E+00

     total cpu time spent up to now is       27.6 secs

     WARNING: integrated charge=    16.00000277, expected=    16.00000000

     total energy              =     -48.34327902 Ry
     estimated scf accuracy    <       0.00043638 Ry

     iteration # 21     ecut=    60.00 Ry     beta= 0.70
     Davidson diagonalization with overlap
     c_bands:  2 eigenvalues not converged
     ethr =  2.73E-06,  avg # of iterations =  8.0

     negative rho (up, down):  1.902E-04 0.000E+00

     total cpu time spent up to now is       28.0 secs

     WARNING: integrated charge=    16.00000274, expected=    16.00000000

     total energy              =     -48.34340604 Ry
     estimated scf accuracy    <       0.00040995 Ry

     iteration # 22     ecut=    60.00 Ry     beta= 0.70
     Davidson diagonalization with overlap
     ethr =  2.56E-06,  avg # of iterations =  2.0

     negative rho (up, down):  2.199E-04 0.000E+00

     total cpu time spent up to now is       28.2 secs

     WARNING: integrated charge=    16.00000272, expected=    16.00000000

     total energy              =     -48.34352202 Ry
     estimated scf accuracy    <       0.00024220 Ry

     iteration # 23     ecut=    60.00 Ry     beta= 0.70
     Davidson diagonalization with overlap
     ethr =  1.51E-06,  avg # of iterations =  1.4

     negative rho (up, down):  1.684E-04 0.000E+00

     total cpu time spent up to now is       28.5 secs

     WARNING: integrated charge=    16.00000268, expected=    16.00000000

     total energy              =     -48.34343526 Ry
     estimated scf accuracy    <       0.00043512 Ry

     iteration # 24     ecut=    60.00 Ry     beta= 0.70
     Davidson diagonalization with overlap
     ethr =  1.51E-06,  avg # of iterations =  1.3

     negative rho (up, down):  1.601E-04 0.000E+00

     total cpu time spent up to now is       28.7 secs

     WARNING: integrated charge=    16.00000271, expected=    16.00000000

     total energy              =     -48.34339737 Ry
     estimated scf accuracy    <       0.00022750 Ry

     iteration # 25     ecut=    60.00 Ry     beta= 0.70
     Davidson diagonalization with overlap
     ethr =  1.42E-06,  avg # of iterations =  1.9

     negative rho (up, down):  1.684E-04 0.000E+00

     total cpu time spent up to now is       28.9 secs

     WARNING: integrated charge=    16.00000263, expected=    16.00000000

     total energy              =     -48.34337746 Ry
     estimated scf accuracy    <       0.00012408 Ry

     iteration # 26     ecut=    60.00 Ry     beta= 0.70
     Davidson diagonalization with overlap
     ethr =  7.75E-07,  avg # of iterations =  2.1

     negative rho (up, down):  1.564E-04 0.000E+00

     total cpu time spent up to now is       29.2 secs

     WARNING: integrated charge=    16.00000261, expected=    16.00000000

     total energy              =     -48.34336771 Ry
     estimated scf accuracy    <       0.00003496 Ry

     iteration # 27     ecut=    60.00 Ry     beta= 0.70
     Davidson diagonalization with overlap
     ethr =  2.19E-07,  avg # of iterations =  4.7

     negative rho (up, down):  1.593E-04 0.000E+00

     total cpu time spent up to now is       29.5 secs

     WARNING: integrated charge=    16.00000260, expected=    16.00000000

     total energy              =     -48.34340104 Ry
     estimated scf accuracy    <       0.00005093 Ry

     iteration # 28     ecut=    60.00 Ry     beta= 0.70
     Davidson diagonalization with overlap
     ethr =  2.19E-07,  avg # of iterations =  1.5

     negative rho (up, down):  1.740E-04 0.000E+00

     total cpu time spent up to now is       29.8 secs

     WARNING: integrated charge=    16.00000259, expected=    16.00000000

     total energy              =     -48.34338244 Ry
     estimated scf accuracy    <       0.00003384 Ry

     iteration # 29     ecut=    60.00 Ry     beta= 0.70
     Davidson diagonalization with overlap
     ethr =  2.11E-07,  avg # of iterations =  2.4

     negative rho (up, down):  1.732E-04 0.000E+00

     total cpu time spent up to now is       30.0 secs

     WARNING: integrated charge=    16.00000258, expected=    16.00000000

     total energy              =     -48.34339116 Ry
     estimated scf accuracy    <       0.00000188 Ry

     iteration # 30     ecut=    60.00 Ry     beta= 0.70
     Davidson diagonalization with overlap
     ethr =  1.18E-08,  avg # of iterations =  6.0

     negative rho (up, down):  1.724E-04 0.000E+00

     total cpu time spent up to now is       30.4 secs

     WARNING: integrated charge=    16.00000258, expected=    16.00000000

     total energy              =     -48.34339369 Ry
     estimated scf accuracy    <       0.00000120 Ry

     iteration # 31     ecut=    60.00 Ry     beta= 0.70
     Davidson diagonalization with overlap
     ethr =  7.48E-09,  avg # of iterations =  2.2

     negative rho (up, down):  1.729E-04 0.000E+00

     total cpu time spent up to now is       30.7 secs

     WARNING: integrated charge=    16.00000258, expected=    16.00000000

     total energy              =     -48.34339390 Ry
     estimated scf accuracy    <       0.00000005 Ry

     iteration # 32     ecut=    60.00 Ry     beta= 0.70
     Davidson diagonalization with overlap
     ethr =  3.28E-10,  avg # of iterations =  8.5

     negative rho (up, down):  1.728E-04 0.000E+00

     total cpu time spent up to now is       31.2 secs

     WARNING: integrated charge=    16.00000258, expected=    16.00000000

     total energy              =     -48.34339411 Ry
     estimated scf accuracy    <       0.00000011 Ry

     iteration # 33     ecut=    60.00 Ry     beta= 0.70
     Davidson diagonalization with overlap
     ethr =  3.28E-10,  avg # of iterations =  2.8

     negative rho (up, down):  1.729E-04 0.000E+00

     total cpu time spent up to now is       31.5 secs

     WARNING: integrated charge=    16.00000258, expected=    16.00000000

     total energy              =     -48.34339414 Ry
     estimated scf accuracy    <       0.00000001 Ry

     iteration # 34     ecut=    60.00 Ry     beta= 0.70
     Davidson diagonalization with overlap
     ethr =  7.40E-11,  avg # of iterations =  4.7

     negative rho (up, down):  1.729E-04 0.000E+00

     total cpu time spent up to now is       31.8 secs

     WARNING: integrated charge=    16.00000258, expected=    16.00000000

     total energy              =     -48.34339416 Ry
     estimated scf accuracy    <       0.00000001 Ry

     iteration # 35     ecut=    60.00 Ry     beta= 0.70
     Davidson diagonalization with overlap
     ethr =  7.40E-11,  avg # of iterations =  1.2

     negative rho (up, down):  1.730E-04 0.000E+00

     total cpu time spent up to now is       32.0 secs

     WARNING: integrated charge=    16.00000258, expected=    16.00000000

     total energy              =     -48.34339411 Ry
     estimated scf accuracy    <          6.3E-09 Ry

     iteration # 36     ecut=    60.00 Ry     beta= 0.70
     Davidson diagonalization with overlap
     ethr =  3.94E-11,  avg # of iterations =  3.0

     negative rho (up, down):  1.730E-04 0.000E+00

     total cpu time spent up to now is       32.3 secs

     End of self-consistent calculation

          k = 0.0000 0.0000 0.0000 (  5565 PWs)   bands (ev):

   -20.0268 -19.9145  -8.5245  -7.6979  -3.9113  -3.9113  -3.9053  -3.9053
     1.8388   2.1732   2.6157   3.8423

          k = 0.0000 0.1435 0.0000 (  5582 PWs)   bands (ev):

   -19.6640 -19.5545  -8.0853  -7.2718  -5.2422  -5.2261  -4.5757  -4.5642
     2.3387   2.6736   3.1170   4.3407

          k = 0.0000 0.2869 0.0000 (  5566 PWs)   bands (ev):

   -18.5861 -18.4845  -8.1561  -8.1217  -6.7953  -6.0266  -5.8255  -5.8094
     3.8349   4.1659   4.6201   5.8118

          k = 0.0000 0.4304 0.0000 (  5594 PWs)   bands (ev):

   -16.8349 -16.7465 -11.3474 -11.2943  -6.7958  -6.7776  -4.7951  -4.1401
     2.9012   3.3091   6.3106   6.6671

          k =-0.0000-0.5738 0.0000 (  5604 PWs)   bands (ev):

   -14.9240 -14.8832 -13.7459 -13.7148  -7.1460  -7.1274  -3.1097  -2.8154
     0.9090   1.2101   6.7155   6.8664

          k = 0.1242 0.2152 0.0000 (  5559 PWs)   bands (ev):

   -18.9437 -18.8395  -7.2195  -6.9985  -6.9837  -6.4342  -5.8940  -5.8836
     3.3373   3.6721   4.1198   5.3356

          k = 0.1242 0.3587 0.0000 (  5578 PWs)   bands (ev):

   -17.5275 -17.4338  -9.7122  -9.6739  -7.3580  -7.3353  -5.5526  -4.8380
     4.3356   4.6114   5.3271   5.6673

          k = 0.1242 0.5021 0.0000 (  5571 PWs)   bands (ev):

   -15.5122 -15.4362 -12.6189 -12.5629  -8.1086  -8.0810  -3.4022  -2.8975
     1.4142   1.7532   8.1922   8.2692

          k = 0.2485 0.4304 0.0000 (  5528 PWs)   bands (ev):

   -15.8258 -15.7452 -11.2255 -11.1984  -9.5192  -9.4996  -3.6145  -3.0126
     2.0162   2.2604   7.7751   8.0421

          k = 0.2485 0.5738 0.0000 (  5540 PWs)   bands (ev):

   -13.9876 -13.9507 -13.0386 -13.0248 -10.2920 -10.2582  -1.7910  -1.5090
     0.3017   0.3496   9.9025  10.0045

     the Fermi energy is    -0.4262 ev

     WARNING: integrated charge=    16.00000258, expected=    16.00000000

!    total energy              =     -48.34339411 Ry
     estimated scf accuracy    <          2.6E-11 Ry
     smearing contrib. (-TS)   =       0.00000004 Ry
     internal energy E=F+TS    =     -48.34339415 Ry

     The total energy is F=E-TS. E is the sum of the following terms:
     one-electron contribution =    -516.80701594 Ry
     hartree contribution      =     262.03366953 Ry
     xc contribution           =     -17.13019231 Ry
     ewald contribution        =     223.56014456 Ry

     convergence has been achieved in  36 iterations

     negative rho (up, down):  1.730E-04 0.000E+00

     Forces acting on atoms (cartesian axes, Ry/au):

     atom    1 type  1   force =     0.00000000    0.00000000   -0.00037852
     atom    2 type  1   force =    -0.00000000   -0.00000000   -0.00056555
     atom    3 type  1   force =    -0.00000000   -0.00000000    0.00037852
     atom    4 type  1   force =    -0.00000000   -0.00000000    0.00056555

     Total force =     0.000962     Total SCF correction =     0.000020


     Computing stress (Cartesian axis) and pressure


     negative rho (up, down):  1.730E-04 0.000E+00
          total   stress  (Ry/bohr**3)                   (kbar)     P=        7.28
   0.00007343  -0.00000000   0.00000000           10.80       -0.00        0.00
   0.00000000   0.00007343   0.00000000            0.00       10.80        0.00
   0.00000000   0.00000000   0.00000164            0.00        0.00        0.24

     Energy error            =      1.4E-03 Ry
     Gradient error          =      5.7E-04 Ry/Bohr
     Cell gradient error     =      1.1E+01 kbar

     number of scf cycles    =   2
     number of bfgs steps    =   1

     enthalpy           old  =     -48.3420157534 Ry
     enthalpy           new  =     -48.3433941134 Ry

     CASE: enthalpy          _new < enthalpy          _old

     new trust radius        =       0.0141262824 bohr
     new conv_thr            =            5.7E-11 Ry

     new unit-cell volume =    722.07166 a.u.^3 (   106.99998 Ang^3 )
     density =      0.74558 g/cm^3

CELL_PARAMETERS (alat=  4.65610675)
   1.008759120  -0.000000000   0.000000000
  -0.504379560   0.873611024   0.000000000
   0.000000000   0.000000000   8.117194158

ATOMIC_POSITIONS (crystal)
C             0.0000000000        0.0000000000        0.4124812867
C             0.3333333330        0.6666666660        0.4124605625
C            -0.0000000000       -0.0000000000        0.5875187133
C             0.6666666660        0.3333333330        0.5875394375



     Writing config-only to output data dir ../tmp/gr.save/
     NEW-OLD atomic charge density approx. for the potential

     Check: negative core charge=   -0.000003

     negative rho (up, down):  1.645E-04 0.000E+00
     extrapolated charge   16.08400, renormalised to   16.00000

     total cpu time spent up to now is       33.1 secs

     Self-consistent Calculation

     iteration #  1     ecut=    60.00 Ry     beta= 0.70
     Davidson diagonalization with overlap
     c_bands:  3 eigenvalues not converged
     c_bands:  3 eigenvalues not converged
     c_bands:  1 eigenvalues not converged
     c_bands:  4 eigenvalues not converged
     c_bands:  2 eigenvalues not converged
     c_bands:  1 eigenvalues not converged
     c_bands:  2 eigenvalues not converged
     ethr =  1.00E-06,  avg # of iterations = 18.5

     total cpu time spent up to now is       34.0 secs

     total energy              =     -48.30548212 Ry
     estimated scf accuracy    <       0.02319077 Ry

     iteration #  2     ecut=    60.00 Ry     beta= 0.70
     Davidson diagonalization with overlap
     c_bands:  3 eigenvalues not converged
     c_bands:  1 eigenvalues not converged
     ethr =  1.45E-04,  avg # of iterations = 14.2

     total cpu time spent up to now is       34.6 secs

     total energy              =     -48.34082484 Ry
     estimated scf accuracy    <       0.06128465 Ry

     iteration #  3     ecut=    60.00 Ry     beta= 0.70
     Davidson diagonalization with overlap
     ethr =  1.45E-04,  avg # of iterations =  4.3

     total cpu time spent up to now is       34.8 secs

     total energy              =     -48.34398680 Ry
     estimated scf accuracy    <       0.00861092 Ry

     iteration #  4     ecut=    60.00 Ry     beta= 0.70
     Davidson diagonalization with overlap
     ethr =  5.38E-05,  avg # of iterations =  7.0

     negative rho (up, down):  2.908E-08 0.000E+00

     total cpu time spent up to now is       35.1 secs

     WARNING: integrated charge=    16.00000193, expected=    16.00000000

     total energy              =     -48.34371798 Ry
     estimated scf accuracy    <       0.00307930 Ry

     iteration #  5     ecut=    60.00 Ry     beta= 0.70
     Davidson diagonalization with overlap
     ethr =  1.92E-05,  avg # of iterations =  5.2

     negative rho (up, down):  4.996E-08 0.000E+00

     total cpu time spent up to now is       35.4 secs

     WARNING: integrated charge=    16.00000207, expected=    16.00000000

     total energy              =     -48.34386809 Ry
     estimated scf accuracy    <       0.00132522 Ry

     iteration #  6     ecut=    60.00 Ry     beta= 0.70
     Davidson diagonalization with overlap
     ethr =  8.28E-06,  avg # of iterations =  8.7

     negative rho (up, down):  5.320E-08 0.000E+00

     total cpu time spent up to now is       35.7 secs

     WARNING: integrated charge=    16.00000209, expected=    16.00000000

     total energy              =     -48.34395507 Ry
     estimated scf accuracy    <       0.00096620 Ry

     iteration #  7     ecut=    60.00 Ry     beta= 0.70
     Davidson diagonalization with overlap
     ethr =  6.04E-06,  avg # of iterations =  1.4

     negative rho (up, down):  5.544E-08 0.000E+00

     total cpu time spent up to now is       36.0 secs

     WARNING: integrated charge=    16.00000210, expected=    16.00000000

     total energy              =     -48.34397189 Ry
     estimated scf accuracy    <       0.00090168 Ry

     iteration #  8     ecut=    60.00 Ry     beta= 0.70
     Davidson diagonalization with overlap
     ethr =  5.64E-06,  avg # of iterations =  1.0

     negative rho (up, down):  5.841E-08 0.000E+00

     total cpu time spent up to now is       36.2 secs

     WARNING: integrated charge=    16.00000212, expected=    16.00000000

     total energy              =     -48.34397904 Ry
     estimated scf accuracy    <       0.00084549 Ry

     iteration #  9     ecut=    60.00 Ry     beta= 0.70
     Davidson diagonalization with overlap
     ethr =  5.28E-06,  avg # of iterations =  1.0

     negative rho (up, down):  6.773E-08 0.000E+00

     total cpu time spent up to now is       36.4 secs

     WARNING: integrated charge=    16.00000218, expected=    16.00000000

     total energy              =     -48.34396547 Ry
     estimated scf accuracy    <       0.00082638 Ry

     iteration # 10     ecut=    60.00 Ry     beta= 0.70
     Davidson diagonalization with overlap
     ethr =  5.16E-06,  avg # of iterations =  1.0

     negative rho (up, down):  1.821E-04 0.000E+00

     total cpu time spent up to now is       36.7 secs

     WARNING: integrated charge=    16.00000313, expected=    16.00000000

     total energy              =     -48.34360310 Ry
     estimated scf accuracy    <       0.00078816 Ry

     iteration # 11     ecut=    60.00 Ry     beta= 0.70
     Davidson diagonalization with overlap
     c_bands:  1 eigenvalues not converged
     ethr =  4.93E-06,  avg # of iterations =  8.4

     negative rho (up, down):  1.828E-04 0.000E+00

     total cpu time spent up to now is       37.0 secs

     WARNING: integrated charge=    16.00000312, expected=    16.00000000

     total energy              =     -48.34360099 Ry
     estimated scf accuracy    <       0.00043099 Ry

     iteration # 12     ecut=    60.00 Ry     beta= 0.70
     Davidson diagonalization with overlap
     ethr =  2.69E-06,  avg # of iterations =  4.2

     negative rho (up, down):  1.852E-04 0.000E+00

     total cpu time spent up to now is       37.2 secs

     WARNING: integrated charge=    16.00000311, expected=    16.00000000

     total energy              =     -48.34357478 Ry
     estimated scf accuracy    <       0.00034912 Ry

     iteration # 13     ecut=    60.00 Ry     beta= 0.70
     Davidson diagonalization with overlap
     ethr =  2.18E-06,  avg # of iterations =  1.9

     negative rho (up, down):  1.580E-04 0.000E+00

     total cpu time spent up to now is       37.5 secs

     WARNING: integrated charge=    16.00000302, expected=    16.00000000

     total energy              =     -48.34345477 Ry
     estimated scf accuracy    <       0.00025057 Ry

     iteration # 14     ecut=    60.00 Ry     beta= 0.70
     Davidson diagonalization with overlap
     ethr =  1.57E-06,  avg # of iterations =  3.6

     negative rho (up, down):  1.684E-04 0.000E+00

     total cpu time spent up to now is       37.8 secs

     WARNING: integrated charge=    16.00000302, expected=    16.00000000

     total energy              =     -48.34352498 Ry
     estimated scf accuracy    <       0.00000035 Ry

     iteration # 15     ecut=    60.00 Ry     beta= 0.70
     Davidson diagonalization with overlap
     c_bands:  2 eigenvalues not converged
     c_bands:  3 eigenvalues not converged
     c_bands:  1 eigenvalues not converged
     c_bands:  2 eigenvalues not converged
     ethr =  2.17E-09,  avg # of iterations = 19.2

     negative rho (up, down):  1.692E-04 0.000E+00

     total cpu time spent up to now is       38.8 secs

     WARNING: integrated charge=    16.00000301, expected=    16.00000000

     total energy              =     -48.34353984 Ry
     estimated scf accuracy    <       0.00000198 Ry

     iteration # 16     ecut=    60.00 Ry     beta= 0.70
     Davidson diagonalization with overlap
     ethr =  2.17E-09,  avg # of iterations =  5.8

     negative rho (up, down):  1.704E-04 0.000E+00

     total cpu time spent up to now is       39.1 secs

     WARNING: integrated charge=    16.00000301, expected=    16.00000000

     total energy              =     -48.34354022 Ry
     estimated scf accuracy    <       0.00000051 Ry

     iteration # 17     ecut=    60.00 Ry     beta= 0.70
     Davidson diagonalization with overlap
     ethr =  2.17E-09,  avg # of iterations =  4.2

     negative rho (up, down):  1.703E-04 0.000E+00

     total cpu time spent up to now is       39.5 secs

     WARNING: integrated charge=    16.00000301, expected=    16.00000000

     total energy              =     -48.34354058 Ry
     estimated scf accuracy    <       0.00000097 Ry

     iteration # 18     ecut=    60.00 Ry     beta= 0.70
     Davidson diagonalization with overlap
     ethr =  2.17E-09,  avg # of iterations =  1.2

     negative rho (up, down):  1.720E-04 0.000E+00

     total cpu time spent up to now is       39.7 secs

     WARNING: integrated charge=    16.00000301, expected=    16.00000000

     total energy              =     -48.34354008 Ry
     estimated scf accuracy    <       0.00000056 Ry

     iteration # 19     ecut=    60.00 Ry     beta= 0.70
     Davidson diagonalization with overlap
     ethr =  2.17E-09,  avg # of iterations =  4.0

     negative rho (up, down):  1.717E-04 0.000E+00

     total cpu time spent up to now is       40.0 secs

     WARNING: integrated charge=    16.00000301, expected=    16.00000000

     total energy              =     -48.34354023 Ry
     estimated scf accuracy    <       0.00000090 Ry

     iteration # 20     ecut=    60.00 Ry     beta= 0.70
     Davidson diagonalization with overlap
     ethr =  2.17E-09,  avg # of iterations =  2.9

     negative rho (up, down):  1.710E-04 0.000E+00

     total cpu time spent up to now is       40.3 secs

     WARNING: integrated charge=    16.00000301, expected=    16.00000000

     total energy              =     -48.34354039 Ry
     estimated scf accuracy    <       0.00000002 Ry

     iteration # 21     ecut=    60.00 Ry     beta= 0.70
     Davidson diagonalization with overlap
     ethr =  1.35E-10,  avg # of iterations =  4.4

     negative rho (up, down):  1.713E-04 0.000E+00

     total cpu time spent up to now is       40.6 secs

     WARNING: integrated charge=    16.00000301, expected=    16.00000000

     total energy              =     -48.34354038 Ry
     estimated scf accuracy    <          5.0E-09 Ry

     iteration # 22     ecut=    60.00 Ry     beta= 0.70
     Davidson diagonalization with overlap
     ethr =  3.15E-11,  avg # of iterations =  3.7

     negative rho (up, down):  1.716E-04 0.000E+00

     total cpu time spent up to now is       40.9 secs

     WARNING: integrated charge=    16.00000301, expected=    16.00000000

     total energy              =     -48.34354038 Ry
     estimated scf accuracy    <          5.5E-10 Ry

     iteration # 23     ecut=    60.00 Ry     beta= 0.70
     Davidson diagonalization with overlap
     ethr =  3.42E-12,  avg # of iterations =  5.7

     negative rho (up, down):  1.716E-04 0.000E+00

     total cpu time spent up to now is       41.2 secs

     WARNING: integrated charge=    16.00000301, expected=    16.00000000

     total energy              =     -48.34354038 Ry
     estimated scf accuracy    <          3.5E-09 Ry

     iteration # 24     ecut=    60.00 Ry     beta= 0.70
     Davidson diagonalization with overlap
     ethr =  3.42E-12,  avg # of iterations =  4.1

     negative rho (up, down):  1.716E-04 0.000E+00

     total cpu time spent up to now is       41.5 secs

     WARNING: integrated charge=    16.00000301, expected=    16.00000000

     total energy              =     -48.34354038 Ry
     estimated scf accuracy    <          1.0E-10 Ry

     iteration # 25     ecut=    60.00 Ry     beta= 0.70
     Davidson diagonalization with overlap
     ethr =  6.22E-13,  avg # of iterations =  5.4

     negative rho (up, down):  1.716E-04 0.000E+00

     total cpu time spent up to now is       41.9 secs

     WARNING: integrated charge=    16.00000301, expected=    16.00000000

     total energy              =     -48.34354038 Ry
     estimated scf accuracy    <          8.2E-11 Ry

     iteration # 26     ecut=    60.00 Ry     beta= 0.70
     Davidson diagonalization with overlap
     ethr =  5.14E-13,  avg # of iterations =  1.6

     negative rho (up, down):  1.716E-04 0.000E+00

     total cpu time spent up to now is       42.1 secs

     End of self-consistent calculation

          k = 0.0000 0.0000 0.0000 (  5565 PWs)   bands (ev):

   -19.9990 -19.8864  -8.5085  -7.6806  -3.9467  -3.9467  -3.9406  -3.9406
     1.8368   2.1718   2.6153   3.8427

          k = 0.0000 0.1431 0.0000 (  5582 PWs)   bands (ev):

   -19.6380 -19.5281  -8.0721  -7.2573  -5.2737  -5.2574  -4.6056  -4.5940
     2.3340   2.6694   3.1140   4.3385

          k = 0.0000 0.2862 0.0000 (  5566 PWs)   bands (ev):

   -18.5652 -18.4633  -8.1767  -8.1420  -6.7904  -6.0206  -5.8460  -5.8297
     3.8219   4.1528   4.6095   5.7991

          k = 0.0000 0.4293 0.0000 (  5594 PWs)   bands (ev):

   -16.8229 -16.7343 -11.3534 -11.3001  -6.8095  -6.7912  -4.8036  -4.1479
     2.8436   3.2505   6.2845   6.6426

          k =-0.0000-0.5723 0.0000 (  5604 PWs)   bands (ev):

   -14.9304 -14.8894 -13.7313 -13.7001  -7.1574  -7.1385  -3.1307  -2.8355
     0.8700   1.1693   6.6021   6.7528

          k = 0.1239 0.2146 0.0000 (  5559 PWs)   bands (ev):

   -18.9210 -18.8165  -7.2118  -7.0256  -7.0106  -6.4254  -5.9138  -5.9033
     3.3271   3.6622   4.1116   5.3281

          k = 0.1239 0.3577 0.0000 (  5578 PWs)   bands (ev):

   -17.5118 -17.4177  -9.7280  -9.6895  -7.3690  -7.3462  -5.5559  -4.8404
     4.2640   4.5393   5.3057   5.6457

          k = 0.1239 0.5008 0.0000 (  5571 PWs)   bands (ev):

   -15.5084 -15.4322 -12.6184 -12.5623  -8.1159  -8.0882  -3.4205  -2.9154
     1.3676   1.7054   8.0797   8.2237

          k = 0.2478 0.4293 0.0000 (  5528 PWs)   bands (ev):

   -15.8190 -15.7382 -11.2411 -11.2138  -9.5131  -9.4934  -3.6310  -3.0286
     1.9606   2.2052   7.7398   8.0056

          k = 0.2478 0.5723 0.0000 (  5540 PWs)   bands (ev):

   -13.9963 -13.9592 -13.0385 -13.0249 -10.2826 -10.2489  -1.8206  -1.5379
     0.2599   0.3092   9.8481   9.9506

     the Fermi energy is    -0.4617 ev

     WARNING: integrated charge=    16.00000301, expected=    16.00000000

!    total energy              =     -48.34354038 Ry
     estimated scf accuracy    <          2.3E-11 Ry
     smearing contrib. (-TS)   =       0.00000004 Ry
     internal energy E=F+TS    =     -48.34354043 Ry

     The total energy is F=E-TS. E is the sum of the following terms:
     one-electron contribution =    -513.98322402 Ry
     hartree contribution      =     260.60428800 Ry
     xc contribution           =     -17.10782231 Ry
     ewald contribution        =     222.14321790 Ry

     convergence has been achieved in  26 iterations

     negative rho (up, down):  1.716E-04 0.000E+00

     Forces acting on atoms (cartesian axes, Ry/au):

     atom    1 type  1   force =     0.00000000    0.00000000   -0.00043505
     atom    2 type  1   force =     0.00000000    0.00000000   -0.00045274
     atom    3 type  1   force =    -0.00000000   -0.00000000    0.00043505
     atom    4 type  1   force =    -0.00000000   -0.00000000    0.00045274

     Total force =     0.000888     Total SCF correction =     0.000020


     Computing stress (Cartesian axis) and pressure


     negative rho (up, down):  1.716E-04 0.000E+00
          total   stress  (Ry/bohr**3)                   (kbar)     P=        0.32
   0.00000241   0.00000000   0.00000000            0.35        0.00        0.00
   0.00000000   0.00000241   0.00000000            0.00        0.35        0.00
   0.00000000   0.00000000   0.00000173            0.00        0.00        0.25

     Energy error            =      1.5E-04 Ry
     Gradient error          =      4.5E-04 Ry/Bohr
     Cell gradient error     =      3.5E-01 kbar

     number of scf cycles    =   3
     number of bfgs steps    =   2

     enthalpy           old  =     -48.3433941134 Ry
     enthalpy           new  =     -48.3435403802 Ry

     CASE: enthalpy          _new < enthalpy          _old

     new trust radius        =       0.0005402136 bohr
     new conv_thr            =            4.5E-11 Ry

     new unit-cell volume =    722.21683 a.u.^3 (   107.02149 Ang^3 )
     density =      0.74543 g/cm^3

CELL_PARAMETERS (alat=  4.65610675)
   1.008860519  -0.000000000   0.000000000
  -0.504430260   0.873698838   0.000000000
   0.000000000   0.000000000   8.117194158

ATOMIC_POSITIONS (crystal)
C             0.0000000000        0.0000000000        0.4124691375
C             0.3333333330        0.6666666660        0.4124478257
C            -0.0000000000       -0.0000000000        0.5875308625
C             0.6666666660        0.3333333330        0.5875521743



     Writing config-only to output data dir ../tmp/gr.save/
     NEW-OLD atomic charge density approx. for the potential

     Check: negative core charge=   -0.000003

     negative rho (up, down):  1.712E-04 0.000E+00
     extrapolated charge   16.00322, renormalised to   16.00000

     total cpu time spent up to now is       42.9 secs

     Self-consistent Calculation

     iteration #  1     ecut=    60.00 Ry     beta= 0.70
     Davidson diagonalization with overlap
     c_bands:  1 eigenvalues not converged
     ethr =  1.00E-06,  avg # of iterations =  6.5

     Threshold (ethr) on eigenvalues was too large:
     Diagonalizing with lowered threshold

     Davidson diagonalization with overlap
     ethr =  2.51E-08,  avg # of iterations =  4.2

     negative rho (up, down):  1.709E-04 0.000E+00

     total cpu time spent up to now is       43.5 secs

     WARNING: integrated charge=    16.00000211, expected=    16.00000000

     total energy              =     -48.34352615 Ry
     estimated scf accuracy    <       0.00001178 Ry

     iteration #  2     ecut=    60.00 Ry     beta= 0.70
     Davidson diagonalization with overlap
     ethr =  7.36E-08,  avg # of iterations =  5.0

     negative rho (up, down):  1.712E-04 0.000E+00

     total cpu time spent up to now is       43.9 secs

     WARNING: integrated charge=    16.00000233, expected=    16.00000000

     total energy              =     -48.34353817 Ry
     estimated scf accuracy    <       0.00004643 Ry

     iteration #  3     ecut=    60.00 Ry     beta= 0.70
     Davidson diagonalization with overlap
     ethr =  7.36E-08,  avg # of iterations =  3.0

     negative rho (up, down):  1.713E-04 0.000E+00

     total cpu time spent up to now is       44.1 secs

     WARNING: integrated charge=    16.00000258, expected=    16.00000000

     total energy              =     -48.34354054 Ry
     estimated scf accuracy    <       0.00000622 Ry

     iteration #  4     ecut=    60.00 Ry     beta= 0.70
     Davidson diagonalization with overlap
     ethr =  3.89E-08,  avg # of iterations =  2.2

     negative rho (up, down):  1.713E-04 0.000E+00

     total cpu time spent up to now is       44.4 secs

     WARNING: integrated charge=    16.00000263, expected=    16.00000000

     total energy              =     -48.34354110 Ry
     estimated scf accuracy    <       0.00000162 Ry

     iteration #  5     ecut=    60.00 Ry     beta= 0.70
     Davidson diagonalization with overlap
     ethr =  1.01E-08,  avg # of iterations =  3.2

     negative rho (up, down):  1.713E-04 0.000E+00

     total cpu time spent up to now is       44.6 secs

     WARNING: integrated charge=    16.00000279, expected=    16.00000000

     total energy              =     -48.34354110 Ry
     estimated scf accuracy    <       0.00000084 Ry

     iteration #  6     ecut=    60.00 Ry     beta= 0.70
     Davidson diagonalization with overlap
     ethr =  5.28E-09,  avg # of iterations =  3.4

     negative rho (up, down):  1.714E-04 0.000E+00

     total cpu time spent up to now is       44.9 secs

     WARNING: integrated charge=    16.00000289, expected=    16.00000000

     total energy              =     -48.34354143 Ry
     estimated scf accuracy    <       0.00000006 Ry

     iteration #  7     ecut=    60.00 Ry     beta= 0.70
     Davidson diagonalization with overlap
     ethr =  3.46E-10,  avg # of iterations =  6.5

     negative rho (up, down):  1.715E-04 0.000E+00

     total cpu time spent up to now is       45.3 secs

     WARNING: integrated charge=    16.00000291, expected=    16.00000000

     total energy              =     -48.34354156 Ry
     estimated scf accuracy    <       0.00000021 Ry

     iteration #  8     ecut=    60.00 Ry     beta= 0.70
     Davidson diagonalization with overlap
     ethr =  3.46E-10,  avg # of iterations =  1.6

     negative rho (up, down):  1.716E-04 0.000E+00

     total cpu time spent up to now is       45.6 secs

     WARNING: integrated charge=    16.00000300, expected=    16.00000000

     total energy              =     -48.34354172 Ry
     estimated scf accuracy    <       0.00000025 Ry

     iteration #  9     ecut=    60.00 Ry     beta= 0.70
     Davidson diagonalization with overlap
     ethr =  3.46E-10,  avg # of iterations =  4.1

     negative rho (up, down):  1.716E-04 0.000E+00

     total cpu time spent up to now is       45.9 secs

     WARNING: integrated charge=    16.00000301, expected=    16.00000000

     total energy              =     -48.34354188 Ry
     estimated scf accuracy    <       0.00000122 Ry

     iteration # 10     ecut=    60.00 Ry     beta= 0.70
     Davidson diagonalization with overlap
     ethr =  3.46E-10,  avg # of iterations =  1.9

     negative rho (up, down):  1.717E-04 0.000E+00

     total cpu time spent up to now is       46.1 secs

     WARNING: integrated charge=    16.00000304, expected=    16.00000000

     total energy              =     -48.34354150 Ry
     estimated scf accuracy    <       0.00000151 Ry

     iteration # 11     ecut=    60.00 Ry     beta= 0.70
     Davidson diagonalization with overlap
     ethr =  3.46E-10,  avg # of iterations =  4.1

     negative rho (up, down):  1.717E-04 0.000E+00

     total cpu time spent up to now is       46.4 secs

     WARNING: integrated charge=    16.00000301, expected=    16.00000000

     total energy              =     -48.34354117 Ry
     estimated scf accuracy    <       0.00000050 Ry

     iteration # 12     ecut=    60.00 Ry     beta= 0.70
     Davidson diagonalization with overlap
     ethr =  3.46E-10,  avg # of iterations =  7.8

     negative rho (up, down):  1.716E-04 0.000E+00

     total cpu time spent up to now is       46.9 secs

     WARNING: integrated charge=    16.00000302, expected=    16.00000000

     total energy              =     -48.34354113 Ry
     estimated scf accuracy    <       0.00000097 Ry

     iteration # 13     ecut=    60.00 Ry     beta= 0.70
     Davidson diagonalization with overlap
     ethr =  3.46E-10,  avg # of iterations =  5.9

     negative rho (up, down):  1.717E-04 0.000E+00

     total cpu time spent up to now is       47.3 secs

     WARNING: integrated charge=    16.00000302, expected=    16.00000000

     total energy              =     -48.34354139 Ry
     estimated scf accuracy    <       0.00000021 Ry

     iteration # 14     ecut=    60.00 Ry     beta= 0.70
     Davidson diagonalization with overlap
     ethr =  3.46E-10,  avg # of iterations =  4.0

     negative rho (up, down):  1.716E-04 0.000E+00

     total cpu time spent up to now is       47.6 secs

     WARNING: integrated charge=    16.00000302, expected=    16.00000000

     total energy              =     -48.34354143 Ry
     estimated scf accuracy    <          1.1E-10 Ry

     iteration # 15     ecut=    60.00 Ry     beta= 0.70
     Davidson diagonalization with overlap
     ethr =  7.00E-13,  avg # of iterations = 14.1

     negative rho (up, down):  1.716E-04 0.000E+00

     total cpu time spent up to now is       48.3 secs

     WARNING: integrated charge=    16.00000302, expected=    16.00000000

     total energy              =     -48.34354143 Ry
     estimated scf accuracy    <          4.6E-11 Ry

     iteration # 16     ecut=    60.00 Ry     beta= 0.70
     Davidson diagonalization with overlap
     ethr =  2.90E-13,  avg # of iterations =  2.3

     negative rho (up, down):  1.716E-04 0.000E+00

     total cpu time spent up to now is       48.6 secs

     End of self-consistent calculation

          k = 0.0000 0.0000 0.0000 (  5565 PWs)   bands (ev):

   -19.9979 -19.8854  -8.5077  -7.6802  -3.9480  -3.9480  -3.9420  -3.9420
     1.8361   2.1712   2.6142   3.8413

          k = 0.0000 0.1431 0.0000 (  5582 PWs)   bands (ev):

   -19.6369 -19.5271  -8.0714  -7.2570  -5.2749  -5.2586  -4.6067  -4.5951
     2.3332   2.6686   3.1128   4.3370

          k = 0.0000 0.2861 0.0000 (  5566 PWs)   bands (ev):

   -18.5643 -18.4625  -8.1774  -8.1427  -6.7899  -6.0206  -5.8468  -5.8305
     3.8208   4.1518   4.6080   5.7965

          k = 0.0000 0.4292 0.0000 (  5594 PWs)   bands (ev):

   -16.8224 -16.7338 -11.3536 -11.3003  -6.8100  -6.7917  -4.8037  -4.1484
     2.8416   3.2481   6.2811   6.6298

          k =-0.0000-0.5723 0.0000 (  5604 PWs)   bands (ev):

   -14.9306 -14.8897 -13.7307 -13.6995  -7.1578  -7.1389  -3.1313  -2.8364
     0.8686   1.1677   6.5978   6.7484

          k = 0.1239 0.2146 0.0000 (  5559 PWs)   bands (ev):

   -18.9201 -18.8157  -7.2113  -7.0266  -7.0116  -6.4253  -5.9145  -5.9040
     3.3261   3.6613   4.1102   5.3264

          k = 0.1239 0.3577 0.0000 (  5578 PWs)   bands (ev):

   -17.5111 -17.4171  -9.7285  -9.6901  -7.3694  -7.3466  -5.5557  -4.8407
     4.2615   4.5364   5.3043   5.6444

          k = 0.1239 0.5007 0.0000 (  5571 PWs)   bands (ev):

   -15.5082 -15.4321 -12.6183 -12.5623  -8.1162  -8.0884  -3.4210  -2.9163
     1.3660   1.7035   8.0748   8.2016

          k = 0.2478 0.4292 0.0000 (  5528 PWs)   bands (ev):

   -15.8187 -15.7379 -11.2416 -11.2144  -9.5129  -9.4932  -3.6314  -3.0294
     1.9586   2.2031   7.7379   8.0039

          k = 0.2478 0.5723 0.0000 (  5540 PWs)   bands (ev):

   -13.9965 -13.9595 -13.0385 -13.0249 -10.2821 -10.2485  -1.8216  -1.5391
     0.2584   0.3076   9.8459   9.9483

     the Fermi energy is    -0.4630 ev

     WARNING: integrated charge=    16.00000302, expected=    16.00000000

!    total energy              =     -48.34354143 Ry
     estimated scf accuracy    <          1.5E-11 Ry
     smearing contrib. (-TS)   =       0.00000005 Ry
     internal energy E=F+TS    =     -48.34354147 Ry

     The total energy is F=E-TS. E is the sum of the following terms:
     one-electron contribution =    -513.82710115 Ry
     hartree contribution      =     260.52555748 Ry
     xc contribution           =     -17.10695687 Ry
     ewald contribution        =     222.06495907 Ry

     convergence has been achieved in  16 iterations

     negative rho (up, down):  1.716E-04 0.000E+00

     Forces acting on atoms (cartesian axes, Ry/au):

     atom    1 type  1   force =     0.00000000    0.00000000   -0.00043952
     atom    2 type  1   force =    -0.00000000   -0.00000000   -0.00044129
     atom    3 type  1   force =    -0.00000000    0.00000000    0.00043952
     atom    4 type  1   force =     0.00000000    0.00000000    0.00044129

     Total force =     0.000881     Total SCF correction =     0.000015


     Computing stress (Cartesian axis) and pressure


     negative rho (up, down):  1.716E-04 0.000E+00
          total   stress  (Ry/bohr**3)                   (kbar)     P=        0.05
  -0.00000028  -0.00000000   0.00000000           -0.04       -0.00        0.00
  -0.00000000  -0.00000028   0.00000000           -0.00       -0.04        0.00
  -0.00000000  -0.00000000   0.00000167           -0.00       -0.00        0.25

     Energy error            =      1.0E-06 Ry
     Gradient error          =      4.4E-04 Ry/Bohr
     Cell gradient error     =      4.1E-02 kbar

     number of scf cycles    =   4
     number of bfgs steps    =   3

     enthalpy           old  =     -48.3435403802 Ry
     enthalpy           new  =     -48.3435414280 Ry

     CASE: enthalpy          _new < enthalpy          _old

     new trust radius        =       0.0005942349 bohr
     new conv_thr            =            1.0E-11 Ry

     new unit-cell volume =    722.29143 a.u.^3 (   107.03255 Ang^3 )
     density =      0.74535 g/cm^3

CELL_PARAMETERS (alat=  4.65610675)
   1.008912620  -0.000000000   0.000000000
  -0.504456310   0.873743959   0.000000000
   0.000000000   0.000000000   8.117194158

ATOMIC_POSITIONS (crystal)
C             0.0000000000        0.0000000000        0.4124537651
C             0.3333333330        0.6666666660        0.4124321029
C            -0.0000000000       -0.0000000000        0.5875462349
C             0.6666666660        0.3333333330        0.5875678971



     Writing config-only to output data dir ../tmp/gr.save/
     NEW-OLD atomic charge density approx. for the potential

     Check: negative core charge=   -0.000003

     negative rho (up, down):  1.713E-04 0.000E+00
     extrapolated charge   16.00166, renormalised to   16.00000

     total cpu time spent up to now is       49.3 secs

     Self-consistent Calculation

     iteration #  1     ecut=    60.00 Ry     beta= 0.70
     Davidson diagonalization with overlap
     ethr =  1.00E-06,  avg # of iterations =  2.0

     Threshold (ethr) on eigenvalues was too large:
     Diagonalizing with lowered threshold

     Davidson diagonalization with overlap
     ethr =  2.85E-09,  avg # of iterations =  8.9

     negative rho (up, down):  1.713E-04 0.000E+00

     total cpu time spent up to now is       50.1 secs

     WARNING: integrated charge=    16.00000212, expected=    16.00000000

     total energy              =     -48.34353776 Ry
     estimated scf accuracy    <       0.00000409 Ry

     iteration #  2     ecut=    60.00 Ry     beta= 0.70
     Davidson diagonalization with overlap
     ethr =  2.56E-08,  avg # of iterations =  4.1

     negative rho (up, down):  1.715E-04 0.000E+00

     total cpu time spent up to now is       50.4 secs

     WARNING: integrated charge=    16.00000234, expected=    16.00000000

     total energy              =     -48.34354115 Ry
     estimated scf accuracy    <       0.00001479 Ry

     iteration #  3     ecut=    60.00 Ry     beta= 0.70
     Davidson diagonalization with overlap
     ethr =  2.56E-08,  avg # of iterations =  3.0

     negative rho (up, down):  1.716E-04 0.000E+00

     total cpu time spent up to now is       50.7 secs

     WARNING: integrated charge=    16.00000264, expected=    16.00000000

     total energy              =     -48.34354212 Ry
     estimated scf accuracy    <       0.00000161 Ry

     iteration #  4     ecut=    60.00 Ry     beta= 0.70
     Davidson diagonalization with overlap
     ethr =  1.01E-08,  avg # of iterations =  2.3

     negative rho (up, down):  1.717E-04 0.000E+00

     total cpu time spent up to now is       50.9 secs

     WARNING: integrated charge=    16.00000311, expected=    16.00000000

     total energy              =     -48.34354222 Ry
     estimated scf accuracy    <       0.00000022 Ry

     iteration #  5     ecut=    60.00 Ry     beta= 0.70
     Davidson diagonalization with overlap
     ethr =  1.37E-09,  avg # of iterations =  4.9

     negative rho (up, down):  1.717E-04 0.000E+00

     total cpu time spent up to now is       51.2 secs

     WARNING: integrated charge=    16.00000306, expected=    16.00000000

     total energy              =     -48.34354242 Ry
     estimated scf accuracy    <       0.00000010 Ry

     iteration #  6     ecut=    60.00 Ry     beta= 0.70
     Davidson diagonalization with overlap
     ethr =  6.55E-10,  avg # of iterations =  1.4

     negative rho (up, down):  1.717E-04 0.000E+00

     total cpu time spent up to now is       51.5 secs

     WARNING: integrated charge=    16.00000304, expected=    16.00000000

     total energy              =     -48.34354241 Ry
     estimated scf accuracy    <       0.00000004 Ry

     iteration #  7     ecut=    60.00 Ry     beta= 0.70
     Davidson diagonalization with overlap
     ethr =  2.80E-10,  avg # of iterations =  2.4

     negative rho (up, down):  1.718E-04 0.000E+00

     total cpu time spent up to now is       51.7 secs

     WARNING: integrated charge=    16.00000304, expected=    16.00000000

     total energy              =     -48.34354241 Ry
     estimated scf accuracy    <       0.00000002 Ry

     iteration #  8     ecut=    60.00 Ry     beta= 0.70
     Davidson diagonalization with overlap
     ethr =  9.96E-11,  avg # of iterations =  4.2

     negative rho (up, down):  1.717E-04 0.000E+00

     total cpu time spent up to now is       52.1 secs

     WARNING: integrated charge=    16.00000304, expected=    16.00000000

     total energy              =     -48.34354242 Ry
     estimated scf accuracy    <       0.00000002 Ry

     iteration #  9     ecut=    60.00 Ry     beta= 0.70
     Davidson diagonalization with overlap
     ethr =  9.96E-11,  avg # of iterations =  2.6

     negative rho (up, down):  1.717E-04 0.000E+00

     total cpu time spent up to now is       52.3 secs

     WARNING: integrated charge=    16.00000304, expected=    16.00000000

     total energy              =     -48.34354242 Ry
     estimated scf accuracy    <          7.7E-11 Ry

     iteration # 10     ecut=    60.00 Ry     beta= 0.70
     Davidson diagonalization with overlap
     ethr =  4.80E-13,  avg # of iterations = 16.7

     negative rho (up, down):  1.718E-04 0.000E+00

     total cpu time spent up to now is       53.2 secs

     WARNING: integrated charge=    16.00000303, expected=    16.00000000

     total energy              =     -48.34354242 Ry
     estimated scf accuracy    <          2.3E-10 Ry

     iteration # 11     ecut=    60.00 Ry     beta= 0.70
     Davidson diagonalization with overlap
     ethr =  4.80E-13,  avg # of iterations =  7.5

     negative rho (up, down):  1.718E-04 0.000E+00

     total cpu time spent up to now is       53.7 secs

     WARNING: integrated charge=    16.00000303, expected=    16.00000000

     total energy              =     -48.34354242 Ry
     estimated scf accuracy    <          5.7E-09 Ry

     iteration # 12     ecut=    60.00 Ry     beta= 0.70
     Davidson diagonalization with overlap
     ethr =  4.80E-13,  avg # of iterations =  4.3

     negative rho (up, down):  1.717E-04 0.000E+00

     total cpu time spent up to now is       54.0 secs

     WARNING: integrated charge=    16.00000303, expected=    16.00000000

     total energy              =     -48.34354242 Ry
     estimated scf accuracy    <          2.2E-09 Ry

     iteration # 13     ecut=    60.00 Ry     beta= 0.70
     Davidson diagonalization with overlap
[...]

     total cpu time spent up to now is      119.5 secs

     total energy              =     -48.37818051 Ry
     estimated scf accuracy    <       0.04414405 Ry

     iteration #  5     ecut=    60.00 Ry     beta= 0.70
     Davidson diagonalization with overlap
     ethr =  1.15E-04,  avg # of iterations =  1.6

     negative rho (up, down):  9.771E-05 0.000E+00

     total cpu time spent up to now is      119.8 secs

     WARNING: integrated charge=    15.99999586, expected=    16.00000000

     total energy              =     -48.37600687 Ry
     estimated scf accuracy    <       0.06474151 Ry

     iteration #  6     ecut=    60.00 Ry     beta= 0.70
     Davidson diagonalization with overlap
     ethr =  1.15E-04,  avg # of iterations =  1.0

     negative rho (up, down):  1.039E-04 0.000E+00

     total cpu time spent up to now is      120.0 secs

     WARNING: integrated charge=    15.99999655, expected=    16.00000000

     total energy              =     -48.36038912 Ry
     estimated scf accuracy    <       0.06901154 Ry

     iteration #  7     ecut=    60.00 Ry     beta= 0.70
     Davidson diagonalization with overlap
     ethr =  1.15E-04,  avg # of iterations =  1.0

     negative rho (up, down):  1.016E-04 0.000E+00

     total cpu time spent up to now is      120.2 secs

     WARNING: integrated charge=    15.99999621, expected=    16.00000000

     total energy              =     -48.36428439 Ry
     estimated scf accuracy    <       0.04508786 Ry

     iteration #  8     ecut=    60.00 Ry     beta= 0.70
     Davidson diagonalization with overlap
     ethr =  1.15E-04,  avg # of iterations =  1.0

     negative rho (up, down):  1.026E-04 0.000E+00

     total cpu time spent up to now is      120.5 secs

     WARNING: integrated charge=    15.99999641, expected=    16.00000000

     total energy              =     -48.36282660 Ry
     estimated scf accuracy    <       0.05119033 Ry

     iteration #  9     ecut=    60.00 Ry     beta= 0.70
     Davidson diagonalization with overlap
     ethr =  1.15E-04,  avg # of iterations =  1.0

     negative rho (up, down):  1.027E-04 0.000E+00

     total cpu time spent up to now is      120.7 secs

     WARNING: integrated charge=    15.99999644, expected=    16.00000000

     total energy              =     -48.36272795 Ry
     estimated scf accuracy    <       0.04798311 Ry

     iteration # 10     ecut=    60.00 Ry     beta= 0.70
     Davidson diagonalization with overlap
     ethr =  1.15E-04,  avg # of iterations =  1.0

     negative rho (up, down):  1.018E-04 0.000E+00

     total cpu time spent up to now is      120.9 secs

     WARNING: integrated charge=    15.99999625, expected=    16.00000000

     total energy              =     -48.36480068 Ry
     estimated scf accuracy    <       0.04797569 Ry

     iteration # 11     ecut=    60.00 Ry     beta= 0.70
     Davidson diagonalization with overlap
     ethr =  1.15E-04,  avg # of iterations =  1.0

     negative rho (up, down):  1.192E-04 0.000E+00

     total cpu time spent up to now is      121.1 secs

     total energy              =     -48.34507252 Ry
     estimated scf accuracy    <       0.05113444 Ry

     iteration # 12     ecut=    60.00 Ry     beta= 0.70
     Davidson diagonalization with overlap
     ethr =  1.15E-04,  avg # of iterations =  1.3

     negative rho (up, down):  1.654E-04 0.000E+00

     total cpu time spent up to now is      121.4 secs

     WARNING: integrated charge=    16.00000268, expected=    16.00000000

     total energy              =     -48.33475657 Ry
     estimated scf accuracy    <       0.01797345 Ry

     iteration # 13     ecut=    60.00 Ry     beta= 0.70
     Davidson diagonalization with overlap
     ethr =  1.12E-04,  avg # of iterations =  4.0

     negative rho (up, down):  1.602E-04 0.000E+00

     total cpu time spent up to now is      121.7 secs

     WARNING: integrated charge=    16.00000268, expected=    16.00000000

     total energy              =     -48.34341086 Ry
     estimated scf accuracy    <       0.00262767 Ry

     iteration # 14     ecut=    60.00 Ry     beta= 0.70
     Davidson diagonalization with overlap
     ethr =  1.64E-05,  avg # of iterations =  6.5

     negative rho (up, down):  1.588E-04 0.000E+00

     total cpu time spent up to now is      122.1 secs

     WARNING: integrated charge=    16.00000269, expected=    16.00000000

     total energy              =     -48.34538284 Ry
     estimated scf accuracy    <       0.00384999 Ry

     iteration # 15     ecut=    60.00 Ry     beta= 0.70
     Davidson diagonalization with overlap
     ethr =  1.64E-05,  avg # of iterations =  1.6

     negative rho (up, down):  1.794E-04 0.000E+00

     total cpu time spent up to now is      122.3 secs

     WARNING: integrated charge=    16.00000276, expected=    16.00000000

     total energy              =     -48.34688709 Ry
     estimated scf accuracy    <       0.00384751 Ry

     iteration # 16     ecut=    60.00 Ry     beta= 0.70
     Davidson diagonalization with overlap
     ethr =  1.64E-05,  avg # of iterations =  1.1

     negative rho (up, down):  1.571E-04 0.000E+00

     total cpu time spent up to now is      122.5 secs

     WARNING: integrated charge=    16.00000256, expected=    16.00000000

     total energy              =     -48.34562714 Ry
     estimated scf accuracy    <       0.00610133 Ry

     iteration # 17     ecut=    60.00 Ry     beta= 0.70
     Davidson diagonalization with overlap
     ethr =  1.64E-05,  avg # of iterations =  1.0

     negative rho (up, down):  1.269E-04 0.000E+00

     total cpu time spent up to now is      122.7 secs

     WARNING: integrated charge=    16.00000179, expected=    16.00000000

     total energy              =     -48.34484977 Ry
     estimated scf accuracy    <       0.00433859 Ry

     iteration # 18     ecut=    60.00 Ry     beta= 0.70
     Davidson diagonalization with overlap
     ethr =  1.64E-05,  avg # of iterations =  1.0

     negative rho (up, down):  1.683E-04 0.000E+00

     total cpu time spent up to now is      123.0 secs

     WARNING: integrated charge=    16.00000247, expected=    16.00000000

     total energy              =     -48.34718538 Ry
     estimated scf accuracy    <       0.00344082 Ry

     iteration # 19     ecut=    60.00 Ry     beta= 0.70
     Davidson diagonalization with overlap
     ethr =  1.64E-05,  avg # of iterations =  1.0

     negative rho (up, down):  1.626E-04 0.000E+00

     total cpu time spent up to now is      123.2 secs

     WARNING: integrated charge=    16.00000245, expected=    16.00000000

     total energy              =     -48.34743812 Ry
     estimated scf accuracy    <       0.00638369 Ry

     iteration # 20     ecut=    60.00 Ry     beta= 0.70
     Davidson diagonalization with overlap
     ethr =  1.64E-05,  avg # of iterations =  1.0

     negative rho (up, down):  1.377E-04 0.000E+00

     total cpu time spent up to now is      123.4 secs

     WARNING: integrated charge=    16.00000236, expected=    16.00000000

     total energy              =     -48.34604411 Ry
     estimated scf accuracy    <       0.00692593 Ry

     iteration # 21     ecut=    60.00 Ry     beta= 0.70
     Davidson diagonalization with overlap
     ethr =  1.64E-05,  avg # of iterations =  1.0

     negative rho (up, down):  1.388E-04 0.000E+00

     total cpu time spent up to now is      123.7 secs

     WARNING: integrated charge=    16.00000214, expected=    16.00000000

     total energy              =     -48.34486237 Ry
     estimated scf accuracy    <       0.00562875 Ry

     iteration # 22     ecut=    60.00 Ry     beta= 0.70
     Davidson diagonalization with overlap
     ethr =  1.64E-05,  avg # of iterations =  1.0

     negative rho (up, down):  1.458E-04 0.000E+00

     total cpu time spent up to now is      123.9 secs

     WARNING: integrated charge=    16.00000269, expected=    16.00000000

     total energy              =     -48.34338310 Ry
     estimated scf accuracy    <       0.00362256 Ry

     iteration # 23     ecut=    60.00 Ry     beta= 0.70
     Davidson diagonalization with overlap
     ethr =  1.64E-05,  avg # of iterations =  1.9

     negative rho (up, down):  1.477E-04 0.000E+00

     total cpu time spent up to now is      124.1 secs

     WARNING: integrated charge=    16.00000273, expected=    16.00000000

     total energy              =     -48.34296202 Ry
     estimated scf accuracy    <       0.00088945 Ry

     iteration # 24     ecut=    60.00 Ry     beta= 0.70
     Davidson diagonalization with overlap
     ethr =  5.56E-06,  avg # of iterations =  5.9

     negative rho (up, down):  1.491E-04 0.000E+00

     total cpu time spent up to now is      124.4 secs

     WARNING: integrated charge=    16.00000271, expected=    16.00000000

     total energy              =     -48.34350830 Ry
     estimated scf accuracy    <       0.00009019 Ry

     iteration # 25     ecut=    60.00 Ry     beta= 0.70
     Davidson diagonalization with overlap
     ethr =  5.64E-07,  avg # of iterations =  7.1

     negative rho (up, down):  1.504E-04 0.000E+00

     total cpu time spent up to now is      124.9 secs

     WARNING: integrated charge=    16.00000272, expected=    16.00000000

     total energy              =     -48.34360690 Ry
     estimated scf accuracy    <       0.00000858 Ry

     iteration # 26     ecut=    60.00 Ry     beta= 0.70
     Davidson diagonalization with overlap
     ethr =  5.36E-08,  avg # of iterations =  5.2

     negative rho (up, down):  1.516E-04 0.000E+00

     total cpu time spent up to now is      125.2 secs

     WARNING: integrated charge=    16.00000275, expected=    16.00000000

     total energy              =     -48.34361640 Ry
     estimated scf accuracy    <       0.00000332 Ry

     iteration # 27     ecut=    60.00 Ry     beta= 0.70
     Davidson diagonalization with overlap
     ethr =  2.07E-08,  avg # of iterations =  3.7

     negative rho (up, down):  1.517E-04 0.000E+00

     total cpu time spent up to now is      125.5 secs

     WARNING: integrated charge=    16.00000276, expected=    16.00000000

     total energy              =     -48.34361716 Ry
     estimated scf accuracy    <       0.00000047 Ry

     iteration # 28     ecut=    60.00 Ry     beta= 0.70
     Davidson diagonalization with overlap
     ethr =  2.92E-09,  avg # of iterations =  6.0

     negative rho (up, down):  1.515E-04 0.000E+00

     total cpu time spent up to now is      125.8 secs

     WARNING: integrated charge=    16.00000276, expected=    16.00000000

     total energy              =     -48.34361756 Ry
     estimated scf accuracy    <       0.00000025 Ry

     iteration # 29     ecut=    60.00 Ry     beta= 0.70
     Davidson diagonalization with overlap
     ethr =  1.56E-09,  avg # of iterations =  4.4

     negative rho (up, down):  1.515E-04 0.000E+00

     total cpu time spent up to now is      126.1 secs

     WARNING: integrated charge=    16.00000276, expected=    16.00000000

     total energy              =     -48.34361761 Ry
     estimated scf accuracy    <       0.00000002 Ry

     iteration # 30     ecut=    60.00 Ry     beta= 0.70
     Davidson diagonalization with overlap
     ethr =  1.00E-10,  avg # of iterations = 10.2

     negative rho (up, down):  1.515E-04 0.000E+00

     total cpu time spent up to now is      126.7 secs

     WARNING: integrated charge=    16.00000276, expected=    16.00000000

     total energy              =     -48.34361767 Ry
     estimated scf accuracy    <       0.00000002 Ry

     iteration # 31     ecut=    60.00 Ry     beta= 0.70
     Davidson diagonalization with overlap
     ethr =  1.00E-10,  avg # of iterations =  1.9

     negative rho (up, down):  1.515E-04 0.000E+00

     total cpu time spent up to now is      126.9 secs

     WARNING: integrated charge=    16.00000276, expected=    16.00000000

     total energy              =     -48.34361767 Ry
     estimated scf accuracy    <          1.7E-09 Ry

     iteration # 32     ecut=    60.00 Ry     beta= 0.70
     Davidson diagonalization with overlap
     ethr =  1.04E-11,  avg # of iterations =  8.8

     negative rho (up, down):  1.515E-04 0.000E+00

     total cpu time spent up to now is      127.5 secs

     WARNING: integrated charge=    16.00000276, expected=    16.00000000

     total energy              =     -48.34361767 Ry
     estimated scf accuracy    <          3.2E-09 Ry

     iteration # 33     ecut=    60.00 Ry     beta= 0.70
     Davidson diagonalization with overlap
     ethr =  1.04E-11,  avg # of iterations =  4.4

     negative rho (up, down):  1.515E-04 0.000E+00

     total cpu time spent up to now is      127.8 secs

     WARNING: integrated charge=    16.00000276, expected=    16.00000000

     total energy              =     -48.34361767 Ry
     estimated scf accuracy    <          8.3E-10 Ry

     iteration # 34     ecut=    60.00 Ry     beta= 0.70
     Davidson diagonalization with overlap
     ethr =  5.21E-12,  avg # of iterations =  2.0

     negative rho (up, down):  1.515E-04 0.000E+00

     total cpu time spent up to now is      128.0 secs

     WARNING: integrated charge=    16.00000276, expected=    16.00000000

     total energy              =     -48.34361767 Ry
     estimated scf accuracy    <          4.5E-10 Ry

     iteration # 35     ecut=    60.00 Ry     beta= 0.70
     Davidson diagonalization with overlap
     ethr =  2.80E-12,  avg # of iterations =  2.2

     negative rho (up, down):  1.515E-04 0.000E+00

     total cpu time spent up to now is      128.3 secs

     WARNING: integrated charge=    16.00000276, expected=    16.00000000

     total energy              =     -48.34361767 Ry
     estimated scf accuracy    <          1.9E-10 Ry

     iteration # 36     ecut=    60.00 Ry     beta= 0.70
     Davidson diagonalization with overlap
     ethr =  1.22E-12,  avg # of iterations =  4.5

     negative rho (up, down):  1.515E-04 0.000E+00

     total cpu time spent up to now is      128.6 secs

     End of self-consistent calculation

          k = 0.0000 0.0000 0.0000 (  5643 PWs)   bands (ev):

   -19.9892 -19.8886  -8.4795  -7.7069  -3.9462  -3.9462  -3.9410  -3.9410
     1.8258   2.1618   2.6207   3.8518

          k =-0.0000 0.1431 0.0000 (  5656 PWs)   bands (ev):

   -19.6283 -19.5303  -8.0435  -7.2833  -5.2723  -5.2581  -4.6045  -4.5944
     2.3226   2.6594   3.1191   4.3474

          k =-0.0000 0.2861 0.0000 (  5654 PWs)   bands (ev):

   -18.5561 -18.4653  -8.1735  -8.1430  -6.7628  -6.0454  -5.8441  -5.8300
     3.8095   4.1429   4.6139   5.8073

          k =-0.0000 0.4292 0.0000 (  5702 PWs)   bands (ev):

   -16.8151 -16.7362 -11.3484 -11.3013  -6.8072  -6.7913  -4.7789  -4.1692
     2.8586   3.2350   6.2682   6.6313

          k = 0.0000-0.5723 0.0000 (  5684 PWs)   bands (ev):

   -14.9258 -14.8895 -13.7268 -13.6990  -7.1549  -7.1385  -3.1150  -2.8427
     0.8756   1.1587   6.6077   6.7433

          k = 0.1239 0.2146 0.0000 (  5644 PWs)   bands (ev):

   -18.9118 -18.8186  -7.1838  -7.0239  -7.0109  -6.4506  -5.9122  -5.9031
     3.3150   3.6522   4.1163   5.3368

          k = 0.1239 0.3577 0.0000 (  5670 PWs)   bands (ev):

   -17.5034 -17.4197  -9.7243  -9.6905  -7.3662  -7.3462  -5.5297  -4.8636
     4.2757   4.5285   5.2927   5.6357

          k = 0.1239 0.5007 0.0000 (  5690 PWs)   bands (ev):

   -15.5016 -15.4339 -12.6129 -12.5633  -8.1126  -8.0884  -3.3996  -2.9310
     1.3790   1.6934   8.0832   8.1961

          k = 0.2478 0.4292 0.0000 (  5650 PWs)   bands (ev):

   -15.8118 -15.7400 -11.2380 -11.2140  -9.5097  -9.4923  -3.6078  -3.0484
     1.9722   2.1967   7.7249   7.9979

          k = 0.2478 0.5723 0.0000 (  5662 PWs)   bands (ev):

   -13.9920 -13.9592 -13.0357 -13.0236 -10.2781 -10.2484  -1.8050  -1.5442
     0.2625   0.3045   9.8480   9.9275

     the Fermi energy is    -0.4643 ev

     WARNING: integrated charge=    16.00000276, expected=    16.00000000

!    total energy              =     -48.34361767 Ry
     estimated scf accuracy    <          5.2E-12 Ry
     smearing contrib. (-TS)   =       0.00000004 Ry
     internal energy E=F+TS    =     -48.34361771 Ry

     The total energy is F=E-TS. E is the sum of the following terms:
     one-electron contribution =    -508.66218022 Ry
     hartree contribution      =     257.94349576 Ry
     xc contribution           =     -17.10552209 Ry
     ewald contribution        =     219.48058883 Ry

     convergence has been achieved in  36 iterations

     negative rho (up, down):  1.515E-04 0.000E+00

     Forces acting on atoms (cartesian axes, Ry/au):

     atom    1 type  1   force =    -0.00000000    0.00000000    0.00003193
     atom    2 type  1   force =    -0.00000000   -0.00000000    0.00000614
     atom    3 type  1   force =    -0.00000000   -0.00000000   -0.00003193
     atom    4 type  1   force =     0.00000000    0.00000000   -0.00000614

     Total force =     0.000046     Total SCF correction =     0.000006
     SCF correction compared to forces is large: reduce conv_thr to get better values


     Computing stress (Cartesian axis) and pressure


     negative rho (up, down):  1.515E-04 0.000E+00
          total   stress  (Ry/bohr**3)                   (kbar)     P=       -0.16
   0.00000033  -0.00000000  -0.00000000            0.05       -0.00       -0.00
  -0.00000000   0.00000033  -0.00000000           -0.00        0.05       -0.00
  -0.00000000  -0.00000000  -0.00000389           -0.00       -0.00       -0.57


     Writing all to output data dir ../tmp/gr.save/
 
     init_run     :      9.51s CPU      9.65s WALL (       2 calls)
     electrons    :     88.43s CPU    106.65s WALL (      17 calls)
     update_pot   :      3.09s CPU      3.29s WALL (      15 calls)
     forces       :      2.55s CPU      2.73s WALL (      17 calls)
     stress       :      6.13s CPU      6.57s WALL (      17 calls)

     Called by init_run:
     wfcinit      :      0.14s CPU      0.17s WALL (       2 calls)
     potinit      :      9.00s CPU      9.05s WALL (       2 calls)
     hinit0       :      0.23s CPU      0.29s WALL (       2 calls)

     Called by electrons:
     c_bands      :     62.78s CPU     75.11s WALL (     323 calls)
     sum_band     :      9.50s CPU     11.27s WALL (     323 calls)
     v_of_rho     :     24.64s CPU     28.13s WALL (     331 calls)
     newd         :      0.75s CPU      1.51s WALL (     331 calls)
     mix_rho      :      0.42s CPU      0.46s WALL (     323 calls)
     vdW_kernel   :      8.83s CPU      8.85s WALL (       1 calls)

     Called by c_bands:
     init_us_2    :      0.78s CPU      0.93s WALL (    6820 calls)
     init_us_2:cp :      0.77s CPU      0.93s WALL (    6820 calls)
     cegterg      :     59.94s CPU     71.83s WALL (    3256 calls)

     Called by *egterg:
     cdiaghg      :      1.71s CPU      2.05s WALL (   17315 calls)
     h_psi        :     50.73s CPU     60.79s WALL (   17600 calls)
     s_psi        :      1.13s CPU      1.37s WALL (   17600 calls)
     g_psi        :      0.26s CPU      0.30s WALL (   14324 calls)

     Called by h_psi:
     h_psi:calbec :      1.74s CPU      2.13s WALL (   17600 calls)
     vloc_psi     :     47.72s CPU     57.12s WALL (   17600 calls)
     add_vuspsi   :      1.16s CPU      1.41s WALL (   17600 calls)

     General routines
     calbec       :      2.30s CPU      2.78s WALL (   21680 calls)
     fft          :      6.44s CPU      8.67s WALL (   23088 calls)
     ffts         :      0.09s CPU      0.11s WALL (     323 calls)
     fftw         :     51.87s CPU     62.12s WALL (  306670 calls)
 
     Parallel routines
 
     PWSCF        :   1m49.89s CPU   2m 9.13s WALL

 
   This run was terminated on:   0:24: 7   2Feb2022            

=------------------------------------------------------------------------------=
   JOB DONE.
=------------------------------------------------------------------------------=
