<PP_INFO>
Generated using Vanderbilt code, version   7  3  6                              
Author: kfg        Generation date:   22    9   15                              
Automatically converted from original format                                    
    1        The Pseudo was generated with a Scalar-Relativistic Calculation
  2.00000000000E+00    Local Potential cutoff radius
nl pn  l   occ               Rcut            Rcut US             E pseu
3D  3  2 10.00      0.00000000000      1.70000000000     -2.15445107900
4S  4  0  2.00      0.00000000000      1.90000000000     -0.86312655900
4P  4  1  2.00      0.00000000000      1.90000000000     -0.28643765400
</PP_INFO>


<PP_HEADER>
   0                   Version Number
  Ge                   Element
   US                  Ultrasoft pseudopotential
    T                  Nonlinear Core Correction
SLA  PW   PSX  PSC     PBEsol  Exchange-Correlation functional
   14.00000000000      Z valence
 -212.83014194300      Total energy
    0.00000    0.00000 Suggested cutoff for wfc and rho
    2                  Max angular momentum component
  873                  Number of points in mesh
    3    6             Number of Wavefunctions, Number of Projectors
 Wavefunctions         nl  l   occ
                       3D  2 10.00
                       4S  0  2.00
                       4P  1  2.00
</PP_HEADER>


<PP_MESH>
  <PP_R>
  0.00000000000E+00  1.32408778375E-06  2.67080900025E-06  4.04055053644E-06
  5.43370589256E-06  6.85067529519E-06  8.29186581221E-06  9.75769146978E-06
  1.12485733712E-05  1.27649398181E-05  1.43072264331E-05  1.58758762854E-05
  1.74713400176E-05  1.90940759758E-05  2.07445503404E-05  2.24232372608E-05
  2.41306189913E-05  2.58671860297E-05  2.76334372581E-05  2.94298800861E-05
  3.12570305972E-05  3.31154136963E-05  3.50055632609E-05  3.69280222943E-05
  3.88833430819E-05  4.08720873495E-05  4.28948264249E-05  4.49521414018E-05
  4.70446233070E-05  4.91728732700E-05  5.13375026960E-05  5.35391334410E-05
  5.57783979910E-05  5.80559396433E-05  6.03724126916E-05  6.27284826138E-05
  6.51248262631E-05  6.75621320627E-05  7.00411002034E-05  7.25624428449E-05
  7.51268843199E-05  7.77351613430E-05  8.03880232217E-05  8.30862320718E-05
  8.58305630365E-05  8.86218045091E-05  9.14607583591E-05  9.43482401631E-05
  9.72850794388E-05  1.00272119883E-04  1.03310219615E-04  1.06400251422E-04
  1.09543103010E-04  1.12739677260E-04  1.15990892486E-04  1.19297682698E-04
  1.22660997874E-04  1.26081804229E-04  1.29561084495E-04  1.33099838201E-04
  1.36699081962E-04  1.40359849773E-04  1.44083193301E-04  1.47870182190E-04
  1.51721904368E-04  1.55639466362E-04  1.59623993611E-04  1.63676630792E-04
  1.67798542150E-04  1.71990911829E-04  1.76254944218E-04  1.80591864289E-04
  1.85002917957E-04  1.89489372430E-04  1.94052516582E-04  1.98693661314E-04
  2.03414139939E-04  2.08215308557E-04  2.13098546452E-04  2.18065256485E-04
  2.23116865493E-04  2.28254824708E-04  2.33480610164E-04  2.38795723130E-04
  2.44201690534E-04  2.49700065406E-04  2.55292427323E-04  2.60980382863E-04
  2.66765566064E-04  2.72649638898E-04  2.78634291745E-04  2.84721243880E-04
  2.90912243967E-04  2.97209070560E-04  3.03613532616E-04  3.10127470013E-04
  3.16752754079E-04  3.23491288129E-04  3.30345008014E-04  3.37315882676E-04
  3.44405914712E-04  3.51617140950E-04  3.58951633036E-04  3.66411498029E-04
  3.73998879003E-04  3.81715955665E-04  3.89564944983E-04  3.97548101819E-04
  4.05667719580E-04  4.13926130875E-04  4.22325708185E-04  4.30868864547E-04
  4.39558054243E-04  4.48395773511E-04  4.57384561256E-04  4.66526999782E-04
  4.75825715536E-04  4.85283379858E-04  4.94902709752E-04  5.04686468666E-04
  5.14637467284E-04  5.24758564336E-04  5.35052667417E-04  5.45522733824E-04
  5.56171771403E-04  5.67002839418E-04  5.78019049425E-04  5.89223566168E-04
  6.00619608487E-04  6.12210450245E-04  6.23999421266E-04  6.35989908294E-04
  6.48185355964E-04  6.60589267792E-04  6.73205207181E-04  6.86036798447E-04
  6.99087727858E-04  7.12361744693E-04  7.25862662321E-04  7.39594359293E-04
  7.53560780461E-04  7.67765938107E-04  7.82213913098E-04  7.96908856058E-04
  8.11854988560E-04  8.27056604337E-04  8.42518070520E-04  8.58243828890E-04
  8.74238397152E-04  8.90506370236E-04  9.07052421616E-04  9.23881304653E-04
  9.40997853958E-04  9.58406986786E-04  9.76113704443E-04  9.94123093727E-04
  1.01244032839E-03  1.03107067061E-03  1.05001947253E-03  1.06929217778E-03
  1.08889432302E-03  1.10883153958E-03  1.12910955503E-03  1.14973419486E-03
  1.17071138412E-03  1.19204714915E-03  1.21374761931E-03  1.23581902873E-03
  1.25826771808E-03  1.28110013645E-03  1.30432284315E-03  1.32794250960E-03
  1.35196592129E-03  1.37639997968E-03  1.40125170419E-03  1.42652823425E-03
  1.45223683132E-03  1.47838488097E-03  1.50497989504E-03  1.53202951376E-03
  1.55954150796E-03  1.58752378131E-03  1.61598437257E-03  1.64493145791E-03
  1.67437335328E-03  1.70431851676E-03  1.73477555101E-03  1.76575320577E-03
  1.79726038029E-03  1.82930612600E-03  1.86189964900E-03  1.89505031279E-03
  1.92876764091E-03  1.96306131970E-03  1.99794120107E-03  2.03341730534E-03
  2.06949982409E-03  2.10619912314E-03  2.14352574550E-03  2.18149041437E-03
  2.22010403627E-03  2.25937770414E-03  2.29932270056E-03  2.33995050095E-03
  2.38127277688E-03  2.42330139944E-03  2.46604844266E-03  2.50952618692E-03
  2.55374712254E-03  2.59872395334E-03  2.64446960029E-03  2.69099720523E-03
  2.73832013465E-03  2.78645198350E-03  2.83540657913E-03  2.88519798525E-03
  2.93584050597E-03  2.98734868991E-03  3.03973733436E-03  3.09302148958E-03
  3.14721646306E-03  3.20233782398E-03  3.25840140764E-03  3.31542332002E-03
  3.37341994241E-03  3.43240793612E-03  3.49240424725E-03  3.55342611160E-03
  3.61549105955E-03  3.67861692117E-03  3.74282183129E-03  3.80812423475E-03
  3.87454289166E-03  3.94209688281E-03  4.01080561516E-03  4.08068882740E-03
  4.15176659562E-03  4.22405933910E-03  4.29758782613E-03  4.37237318003E-03
  4.44843688518E-03  4.52580079322E-03  4.60448712929E-03  4.68451849847E-03
  4.76591789220E-03  4.84870869498E-03  4.93291469098E-03  5.01856007096E-03
  5.10566943919E-03  5.19426782049E-03  5.28438066748E-03  5.37603386782E-03
  5.46925375171E-03  5.56406709941E-03  5.66050114897E-03  5.75858360402E-03
  5.85834264176E-03  5.95980692102E-03  6.06300559053E-03  6.16796829728E-03
  6.27472519500E-03  6.38330695290E-03  6.49374476442E-03  6.60607035619E-03
  6.72031599719E-03  6.83651450798E-03  6.95469927015E-03  7.07490423588E-03
  7.19716393775E-03  7.32151349859E-03  7.44798864162E-03  7.57662570072E-03
  7.70746163082E-03  7.84053401854E-03  7.97588109302E-03  8.11354173684E-03
  8.25355549724E-03  8.39596259748E-03  8.54080394835E-03  8.68812115997E-03
  8.83795655372E-03  8.99035317442E-03  9.14535480266E-03  9.30300596741E-03
  9.46335195881E-03  9.62643884115E-03  9.79231346613E-03  9.96102348633E-03
  1.01326173689E-02  1.03071444094E-02  1.04846547460E-02  1.06651993742E-02
  1.08488301608E-02  1.10355998594E-02  1.12255621253E-02  1.14187715311E-02
  1.16152835820E-02  1.18151547322E-02  1.20184424007E-02  1.22252049882E-02
  1.24355018936E-02  1.26493935311E-02  1.28669413477E-02  1.30882078405E-02
  1.33132565752E-02  1.35421522040E-02  1.37749604841E-02  1.40117482969E-02
  1.42525836668E-02  1.44975357813E-02  1.47466750103E-02  1.50000729267E-02
  1.52578023269E-02  1.55199372514E-02  1.57865530067E-02  1.60577261862E-02
  1.63335346927E-02  1.66140577608E-02  1.68993759792E-02  1.71895713143E-02
  1.74847271337E-02  1.77849282300E-02  1.80902608450E-02  1.84008126949E-02
  1.87166729952E-02  1.90379324866E-02  1.93646834607E-02  1.96970197866E-02
  2.00350369382E-02  2.03788320213E-02  2.07285038015E-02  2.10841527328E-02
  2.14458809862E-02  2.18137924793E-02  2.21879929059E-02  2.25685897665E-02
  2.29556923994E-02  2.33494120114E-02  2.37498617108E-02  2.41571565389E-02
  2.45714135037E-02  2.49927516131E-02  2.54212919095E-02  2.58571575041E-02
  2.63004736129E-02  2.67513675918E-02  2.72099689740E-02  2.76764095067E-02
  2.81508231895E-02  2.86333463120E-02  2.91241174939E-02  2.96232777242E-02
  3.01309704021E-02  3.06473413777E-02  3.11725389945E-02  3.17067141316E-02
  3.22500202471E-02  3.28026134224E-02  3.33646524069E-02  3.39362986634E-02
  3.45177164149E-02  3.51090726914E-02  3.57105373782E-02  3.63222832643E-02
  3.69444860926E-02  3.75773246099E-02  3.82209806185E-02  3.88756390282E-02
  3.95414879098E-02  4.02187185488E-02  4.09075255004E-02  4.16081066455E-02
  4.23206632476E-02  4.30454000103E-02  4.37825251365E-02  4.45322503880E-02
  4.52947911463E-02  4.60703664747E-02  4.68591991810E-02  4.76615158814E-02
  4.84775470662E-02  4.93075271651E-02  5.01516946155E-02  5.10102919304E-02
  5.18835657681E-02  5.27717670032E-02  5.36751507990E-02  5.45939766799E-02
  5.55285086069E-02  5.64790150530E-02  5.74457690802E-02  5.84290484183E-02
  5.94291355445E-02  6.04463177643E-02  6.14808872945E-02  6.25331413471E-02
  6.36033822141E-02  6.46919173551E-02  6.57990594851E-02  6.69251266647E-02
  6.80704423912E-02  6.92353356917E-02  7.04201412173E-02  7.16251993399E-02
  7.28508562493E-02  7.40974640530E-02  7.53653808774E-02  7.66549709703E-02
  7.79666048061E-02  7.93006591918E-02  8.06575173754E-02  8.20375691560E-02
  8.34412109958E-02  8.48688461338E-02  8.63208847022E-02  8.77977438433E-02
  8.92998478304E-02  9.08276281888E-02  9.23815238202E-02  9.39619811287E-02
  9.55694541493E-02  9.72044046777E-02  9.88673024037E-02  1.00558625046E-01
  1.02278858487E-01  1.04028496919E-01  1.05808042978E-01  1.07618007894E-01
  1.09458911633E-01  1.11331283053E-01  1.13235660049E-01  1.15172589712E-01
  1.17142628485E-01  1.19146342321E-01  1.21184306848E-01  1.23257107535E-01
  1.25365339857E-01  1.27509609468E-01  1.29690532376E-01  1.31908735116E-01
  1.34164854937E-01  1.36459539978E-01  1.38793449457E-01  1.41167253861E-01
  1.43581635139E-01  1.46037286895E-01  1.48534914590E-01  1.51075235746E-01
  1.53658980146E-01  1.56286890051E-01  1.58959720408E-01  1.61678239070E-01
  1.64443227014E-01  1.67255478568E-01  1.70115801638E-01  1.73025017939E-01
  1.75983963233E-01  1.78993487566E-01  1.82054455518E-01  1.85167746445E-01
  1.88334254736E-01  1.91554890067E-01  1.94830577664E-01  1.98162258568E-01
  2.01550889908E-01  2.04997445172E-01  2.08502914488E-01  2.12068304909E-01
  2.15694640704E-01  2.19382963648E-01  2.23134333326E-01  2.26949827433E-01
  2.30830542086E-01  2.34777592141E-01  2.38792111507E-01  2.42875253480E-01
  2.47028191066E-01  2.51252117324E-01  2.55548245706E-01  2.59917810408E-01
  2.64362066720E-01  2.68882291391E-01  2.73479782994E-01  2.78155862300E-01
  2.82911872656E-01  2.87749180371E-01  2.92669175111E-01  2.97673270294E-01
  3.02762903501E-01  3.07939536884E-01  3.13204657590E-01  3.18559778187E-01
  3.24006437096E-01  3.29546199038E-01  3.35180655479E-01  3.40911425090E-01
  3.46740154209E-01  3.52668517318E-01  3.58698217520E-01  3.64830987032E-01
  3.71068587680E-01  3.77412811406E-01  3.83865480783E-01  3.90428449536E-01
  3.97103603082E-01  4.03892859061E-01  4.10798167896E-01  4.17821513349E-01
  4.24964913090E-01  4.32230419280E-01  4.39620119159E-01  4.47136135644E-01
  4.54780627941E-01  4.62555792165E-01  4.70463861971E-01  4.78507109194E-01
  4.86687844502E-01  4.95008418063E-01  5.03471220218E-01  5.12078682164E-01
  5.20833276659E-01  5.29737518729E-01  5.38793966391E-01  5.48005221386E-01
  5.57373929930E-01  5.66902783471E-01  5.76594519465E-01  5.86451922160E-01
  5.96477823397E-01  6.06675103423E-01  6.17046691720E-01  6.27595567844E-01
  6.38324762283E-01  6.49237357328E-01  6.60336487954E-01  6.71625342729E-01
  6.83107164722E-01  6.94785252437E-01  7.06662960763E-01  7.18743701937E-01
  7.31030946521E-01  7.43528224402E-01  7.56239125808E-01  7.69167302334E-01
  7.82316467995E-01  7.95690400292E-01  8.09292941296E-01  8.23127998755E-01
  8.37199547213E-01  8.51511629154E-01  8.66068356161E-01  8.80873910100E-01
  8.95932544322E-01  9.11248584879E-01  9.26826431774E-01  9.42670560222E-01
  9.58785521933E-01  9.75175946424E-01  9.91846542347E-01  1.00880209884E+00
  1.02604748691E+00  1.04358766082E+00  1.06142765953E+00  1.07957260811E+00
  1.09802771927E+00  1.11679829479E+00  1.13588972711E+00  1.15530750082E+00
  1.17505719427E+00  1.19514448117E+00  1.21557513221E+00  1.23635501671E+00
  1.25749010433E+00  1.27898646678E+00  1.30085027955E+00  1.32308782368E+00
  1.34570548759E+00  1.36870976891E+00  1.39210727631E+00  1.41590473144E+00
  1.44010897085E+00  1.46472694796E+00  1.48976573503E+00  1.51523252522E+00
  1.54113463465E+00  1.56747950449E+00  1.59427470311E+00  1.62152792826E+00
  1.64924700925E+00  1.67743990925E+00  1.70611472753E+00  1.73527970181E+00
  1.76494321062E+00  1.79511377571E+00  1.82580006451E+00  1.85701089259E+00
  1.88875522622E+00  1.92104218493E+00  1.95388104413E+00  1.98728123781E+00
  2.02125236118E+00  2.05580417349E+00  2.09094660082E+00  2.12668973889E+00
  2.16304385603E+00  2.20001939606E+00  2.23762698135E+00  2.27587741582E+00
  2.31478168809E+00  2.35435097459E+00  2.39459664283E+00  2.43553025459E+00
  2.47716356932E+00  2.51950854747E+00  2.56257735391E+00  2.60638236150E+00
  2.65093615455E+00  2.69625153252E+00  2.74234151363E+00  2.78921933865E+00
  2.83689847465E+00  2.88539261895E+00  2.93471570297E+00  2.98488189627E+00
  3.03590561063E+00  3.08780150418E+00  3.14058448561E+00  3.19426971843E+00
  3.24887262539E+00  3.30440889284E+00  3.36089447527E+00  3.41834559991E+00
  3.47677877133E+00  3.53621077628E+00  3.59665868840E+00  3.65813987322E+00
  3.72067199309E+00  3.78427301228E+00  3.84896120213E+00  3.91475514631E+00
  3.98167374614E+00  4.04973622604E+00  4.11896213904E+00  4.18937137242E+00
  4.26098415337E+00  4.33382105488E+00  4.40790300156E+00  4.48325127573E+00
  4.55988752349E+00  4.63783376095E+00  4.71711238056E+00  4.79774615752E+00
  4.87975825638E+00  4.96317223760E+00  5.04801206442E+00  5.13430210967E+00
  5.22206716282E+00  5.31133243707E+00  5.40212357661E+00  5.49446666396E+00
  5.58838822751E+00  5.68391524912E+00  5.78107517184E+00  5.87989590785E+00
  5.98040584642E+00  6.08263386211E+00  6.18660932307E+00  6.29236209942E+00
  6.39992257189E+00  6.50932164052E+00  6.62059073356E+00  6.73376181645E+00
  6.84886740106E+00  6.96594055500E+00  7.08501491111E+00  7.20612467716E+00
  7.32930464564E+00  7.45459020377E+00  7.58201734366E+00  7.71162267268E+00
  7.84344342391E+00  7.97751746691E+00  8.11388331856E+00  8.25258015414E+00
  8.39364781855E+00  8.53712683780E+00  8.68305843065E+00  8.83148452042E+00
  8.98244774704E+00  9.13599147934E+00  9.29215982746E+00  9.45099765553E+00
  9.61255059460E+00  9.77686505569E+00  9.94398824318E+00  1.01139681683E+01
  1.02868536631E+01  1.04626943940E+01  1.06415408769E+01  1.08234444908E+01
  1.10084574931E+01  1.11966330345E+01  1.13880251742E+01  1.15826888953E+01
  1.17806801211E+01  1.19820557306E+01  1.21868735751E+01  1.23951924948E+01
  1.26070723356E+01  1.28225739667E+01  1.30417592974E+01  1.32646912954E+01
  1.34914340048E+01  1.37220525644E+01  1.39566132264E+01  1.41951833755E+01
  1.44378315484E+01  1.46846274532E+01  1.49356419895E+01  1.51909472691E+01
  1.54506166360E+01  1.57147246884E+01  1.59833472994E+01  1.62565616390E+01
  1.65344461964E+01  1.68170808025E+01  1.71045466528E+01  1.73969263305E+01
  1.76943038309E+01  1.79967645845E+01  1.83043954827E+01  1.86172849017E+01
  1.89355227286E+01  1.92592003871E+01  1.95884108634E+01  1.99232487333E+01
  2.02638101894E+01  2.06101930682E+01  2.09624968789E+01  2.13208228316E+01
  2.16852738664E+01  2.20559546829E+01  2.24329717707E+01  2.28164334395E+01
  2.32064498503E+01  2.36031330473E+01  2.40065969900E+01  2.44169575857E+01
  2.48343327231E+01  2.52588423059E+01  2.56906082877E+01  2.61297547063E+01
  2.65764077200E+01  2.70306956437E+01  2.74927489854E+01  2.79627004841E+01
  2.84406851479E+01  2.89268402924E+01  2.94213055806E+01  2.99242230628E+01
  3.04357372175E+01  3.09559949928E+01  3.14851458487E+01  3.20233417999E+01
  3.25707374599E+01  3.31274900847E+01  3.36937596186E+01  3.42697087399E+01
  3.48555029076E+01  3.54513104091E+01  3.60573024083E+01  3.66736529950E+01
  3.73005392348E+01  3.79381412199E+01  3.85866421212E+01  3.92462282403E+01
  3.99170890636E+01  4.05994173164E+01  4.12934090184E+01  4.19992635400E+01
  4.27171836596E+01  4.34473756217E+01  4.41900491963E+01  4.49454177391E+01
  4.57136982530E+01  4.64951114501E+01  4.72898818152E+01  4.80982376705E+01
  4.89204112410E+01  4.97566387213E+01  5.06071603433E+01  5.14722204454E+01
  5.23520675427E+01  5.32469543982E+01  5.41571380955E+01  5.50828801129E+01
  5.60244463981E+01  5.69821074449E+01  5.79561383707E+01  5.89468189959E+01
  5.99544339238E+01  6.09792726225E+01  6.20216295086E+01  6.30818040309E+01
  6.41601007571E+01  6.52568294609E+01  6.63723052113E+01  6.75068484629E+01
  6.86607851480E+01  6.98344467703E+01  7.10281705000E+01  7.22422992709E+01
  7.34771818787E+01  7.47331730813E+01  7.60106337005E+01  7.73099307263E+01
  7.86314374213E+01  7.99755334290E+01  8.13426048822E+01  8.27330445139E+01
  8.41472517705E+01  8.55856329266E+01  8.70486012011E+01  8.85365768765E+01
  9.00499874195E+01  9.15892676035E+01  9.31548596340E+01  9.47472132754E+01
  9.63667859799E+01  9.80140430196E+01  9.96894576193E+01  1.01393511093E+02
  1.03126692984E+02  1.04889501199E+02  1.06682442161E+02  1.08506030946E+02
  1.10360791437E+02  1.12247256470E+02  1.14165967989E+02  1.16117477205E+02
  1.18102344746E+02  1.20121140829E+02  1.22174445413E+02  1.24262848373E+02
  1.26386949667E+02  1.28547359508E+02  1.30744698541E+02  1.32979598017E+02
  1.35252699981E+02  1.37564657451E+02  1.39916134607E+02  1.42307806983E+02
  1.44740361661E+02  1.47214497466E+02  1.49730925170E+02  1.52290367693E+02
  1.54893560315E+02  1.57541250881E+02  1.60234200022E+02  1.62973181370E+02
  1.65758981782E+02  1.68592401565E+02  1.71474254704E+02  1.74405369100E+02
  1.77386586806E+02  1.80418764269E+02  1.83502772573E+02  1.86639497695E+02
  1.89829840756E+02  1.93074718279E+02  1.96375062454E+02  1.99731821407E+02
  2.03145959470E+02
  </PP_R>
  <PP_RAB>
  1.31289839866E-06  1.33534056448E-06  1.35816634781E-06  1.38138230606E-06
  1.40499510870E-06  1.42901153925E-06  1.45343849717E-06  1.47828299984E-06
  1.50355218461E-06  1.52925331083E-06  1.55539376193E-06  1.58198104756E-06
  1.60902280574E-06  1.63652680503E-06  1.66450094680E-06  1.69295326749E-06
  1.72189194088E-06  1.75132528052E-06  1.78126174202E-06  1.81170992554E-06
  1.84267857827E-06  1.87417659690E-06  1.90621303020E-06  1.93879708161E-06
  1.97193811191E-06  2.00564564187E-06  2.03992935501E-06  2.07479910038E-06
  2.11026489539E-06  2.14633692866E-06  2.18302556300E-06  2.22034133834E-06
  2.25829497478E-06  2.29689737566E-06  2.33615963072E-06  2.37609301923E-06
  2.41670901329E-06  2.45801928108E-06  2.50003569024E-06  2.54277031128E-06
  2.58623542103E-06  2.63044350617E-06  2.67540726682E-06  2.72113962021E-06
  2.76765370436E-06  2.81496288186E-06  2.86308074373E-06  2.91202111329E-06
  2.96179805016E-06  3.01242585431E-06  3.06391907010E-06  3.11629249056E-06
  3.16956116154E-06  3.22374038612E-06  3.27884572892E-06  3.33489302066E-06
  3.39189836262E-06  3.44987813135E-06  3.50884898331E-06  3.56882785969E-06
  3.62983199124E-06  3.69187890329E-06  3.75498642070E-06  3.81917267306E-06
  3.88445609981E-06  3.95085545564E-06  4.01838981579E-06  4.08707858157E-06
  4.15694148594E-06  4.22799859916E-06  4.30027033456E-06  4.37377745441E-06
  4.44854107589E-06  4.52458267714E-06  4.60192410344E-06  4.68058757348E-06
  4.76059568575E-06  4.84197142505E-06  4.92473816904E-06  5.00891969501E-06
  5.09454018668E-06  5.18162424116E-06  5.27019687602E-06  5.36028353645E-06
  5.45191010263E-06  5.54510289707E-06  5.63988869227E-06  5.73629471836E-06
  5.83434867092E-06  5.93407871896E-06  6.03551351298E-06  6.13868219324E-06
  6.24361439810E-06  6.35034027256E-06  6.45889047690E-06  6.56929619549E-06
  6.68158914575E-06  6.79580158728E-06  6.91196633111E-06  7.03011674910E-06
  7.15028678360E-06  7.27251095713E-06  7.39682438233E-06  7.52326277203E-06
  7.65186244955E-06  7.78266035909E-06  7.91569407634E-06  8.05100181932E-06
  8.18862245934E-06  8.32859553213E-06  8.47096124925E-06  8.61576050962E-06
  8.76303491126E-06  8.91282676325E-06  9.06517909791E-06  9.22013568310E-06
  9.37774103486E-06  9.53804043015E-06  9.70107991988E-06  9.86690634215E-06
  1.00355673357E-05  1.02071113535E-05  1.03815876769E-05  1.05590464296E-05
  1.07395385919E-05  1.09231160159E-05  1.11098314398E-05  1.12997385032E-05
  1.14928917628E-05  1.16893467079E-05  1.18891597760E-05  1.20923883697E-05
  1.22990908726E-05  1.25093266663E-05  1.27231561475E-05  1.29406407452E-05
  1.31618429386E-05  1.33868262748E-05  1.36156553871E-05  1.38483960138E-05
  1.40851150166E-05  1.43258804005E-05  1.45707613325E-05  1.48198281624E-05
  1.50731524420E-05  1.53308069467E-05  1.55928656956E-05  1.58594039731E-05
  1.61304983504E-05  1.64062267077E-05  1.66866682566E-05  1.69719035623E-05
  1.72620145674E-05  1.75570846154E-05  1.78571984740E-05  1.81624423601E-05
  1.84729039645E-05  1.87886724768E-05  1.91098386110E-05  1.94364946321E-05
  1.97687343820E-05  2.01066533068E-05  2.04503484839E-05  2.07999186505E-05
  2.11554642312E-05  2.15170873674E-05  2.18848919464E-05  2.22589836313E-05
  2.26394698916E-05  2.30264600334E-05  2.34200652316E-05  2.38203985614E-05
  2.42275750308E-05  2.46417116136E-05  2.50629272833E-05  2.54913430470E-05
  2.59270819804E-05  2.63702692626E-05  2.68210322130E-05  2.72795003269E-05
  2.77458053133E-05  2.82200811327E-05  2.87024640354E-05  2.91930926005E-05
  2.96921077762E-05  3.01996529199E-05  3.07158738396E-05  3.12409188354E-05
  3.17749387426E-05  3.23180869749E-05  3.28705195682E-05  3.34323952256E-05
  3.40038753633E-05  3.45851241564E-05  3.51763085864E-05  3.57775984891E-05
  3.63891666036E-05  3.70111886214E-05  3.76438432376E-05  3.82873122015E-05
  3.89417803693E-05  3.96074357570E-05  4.02844695946E-05  4.09730763808E-05
  4.16734539389E-05  4.23858034740E-05  4.31103296302E-05  4.38472405498E-05
  4.45967479332E-05  4.53590670993E-05  4.61344170477E-05  4.69230205213E-05
  4.77251040707E-05  4.85408981190E-05  4.93706370280E-05  5.02145591656E-05
  5.10729069745E-05  5.19459270411E-05  5.28338701675E-05  5.37369914423E-05
  5.46555503150E-05  5.55898106696E-05  5.65400409011E-05  5.75065139922E-05
  5.84895075920E-05  5.94893040956E-05  6.05061907250E-05  6.15404596122E-05
  6.25924078826E-05  6.36623377405E-05  6.47505565562E-05  6.58573769537E-05
  6.69831169013E-05  6.81280998022E-05  6.92926545878E-05  7.04771158122E-05
  7.16818237482E-05  7.29071244851E-05  7.41533700280E-05  7.54209183991E-05
  7.67101337407E-05  7.80213864193E-05  7.93550531324E-05  8.07115170167E-05
  8.20911677581E-05  8.34944017033E-05  8.49216219745E-05  8.63732385844E-05
  8.78496685544E-05  8.93513360341E-05  9.08786724237E-05  9.24321164973E-05
  9.40121145293E-05  9.56191204226E-05  9.72535958388E-05  9.89160103313E-05
  1.00606841479E-04  1.02326575026E-04  1.04075705018E-04  1.05854733946E-04
  1.07664172890E-04  1.09504541668E-04  1.11376368982E-04  1.13280192571E-04
  1.15216559368E-04  1.17186025653E-04  1.19189157215E-04  1.21226529515E-04
  1.23298727852E-04  1.25406347527E-04  1.27549994019E-04  1.29730283157E-04
  1.31947841294E-04  1.34203305493E-04  1.36497323704E-04  1.38830554955E-04
  1.41203669538E-04  1.43617349203E-04  1.46072287354E-04  1.48569189246E-04
  1.51108772191E-04  1.53691765762E-04  1.56318912003E-04  1.58990965643E-04
  1.61708694311E-04  1.64472878757E-04  1.67284313079E-04  1.70143804947E-04
  1.73052175837E-04  1.76010261269E-04  1.79018911043E-04  1.82078989486E-04
  1.85191375700E-04  1.88356963812E-04  1.91576663235E-04  1.94851398926E-04
  1.98182111653E-04  2.01569758266E-04  2.05015311970E-04  2.08519762606E-04
  2.12084116935E-04  2.15709398926E-04  2.19396650054E-04  2.23146929594E-04
  2.26961314928E-04  2.30840901857E-04  2.34786804909E-04  2.38800157667E-04
  2.42882113090E-04  2.47033843844E-04  2.51256542640E-04  2.55551422580E-04
  2.59919717498E-04  2.64362682321E-04  2.68881593427E-04  2.73477749012E-04
  2.78152469462E-04  2.82907097734E-04  2.87742999741E-04  2.92661564744E-04
  2.97664205750E-04  3.02752359923E-04  3.07927488991E-04  3.13191079668E-04
  3.18544644081E-04  3.23989720206E-04  3.29527872309E-04  3.35160691392E-04
  3.40889795657E-04  3.46716830963E-04  3.52643471306E-04  3.58671419294E-04
  3.64802406640E-04  3.71038194658E-04  3.77380574770E-04  3.83831369018E-04
  3.90392430591E-04  3.97065644355E-04  4.03852927395E-04  4.10756229566E-04
  4.17777534054E-04  4.24918857942E-04  4.32182252796E-04  4.39569805249E-04
  4.47083637600E-04  4.54725908428E-04  4.62498813211E-04  4.70404584954E-04
  4.78445494830E-04  4.86623852840E-04  4.94942008465E-04  5.03402351352E-04
  5.12007311993E-04  5.20759362427E-04  5.29661016949E-04  5.38714832832E-04
  5.47923411061E-04  5.57289397084E-04  5.66815481567E-04  5.76504401169E-04
  5.86358939329E-04  5.96381927067E-04  6.06576243791E-04  6.16944818133E-04
  6.27490628782E-04  6.38216705347E-04  6.49126129221E-04  6.60222034470E-04
  6.71507608735E-04  6.82986094141E-04  6.94660788236E-04  7.06535044933E-04
  7.18612275476E-04  7.30895949420E-04  7.43389595627E-04  7.56096803280E-04
  7.69021222913E-04  7.82166567462E-04  7.95536613331E-04  8.09135201474E-04
  8.22966238503E-04  8.37033697807E-04  8.51341620696E-04  8.65894117558E-04
  8.80695369044E-04  8.95749627267E-04  9.11061217025E-04  9.26634537041E-04
  9.42474061228E-04  9.58584339975E-04  9.74970001453E-04  9.91635752947E-04
  1.00858638220E-03  1.02582675881E-03  1.04336183559E-03  1.06119665004E-03
  1.07933632576E-03  1.09778607391E-03  1.11655119476E-03  1.13563707916E-03
  1.15504921011E-03  1.17479316436E-03  1.19487461395E-03  1.21529932789E-03
  1.23607317381E-03  1.25720211964E-03  1.27869223530E-03  1.30054969451E-03
  1.32278077647E-03  1.34539186775E-03  1.36838946408E-03  1.39178017223E-03
  1.41557071189E-03  1.43976791762E-03  1.46437874081E-03  1.48941025168E-03
  1.51486964129E-03  1.54076422363E-03  1.56710143772E-03  1.59388884973E-03
  1.62113415517E-03  1.64884518107E-03  1.67702988829E-03  1.70569637375E-03
  1.73485287276E-03  1.76450776144E-03  1.79466955905E-03  1.82534693050E-03
  1.85654868879E-03  1.88828379760E-03  1.92056137381E-03  1.95339069013E-03
  1.98678117780E-03  2.02074242926E-03  2.05528420091E-03  2.09041641594E-03
  2.12614916716E-03  2.16249271989E-03  2.19945751493E-03  2.23705417156E-03
  2.27529349056E-03  2.31418645735E-03  2.35374424513E-03  2.39397821808E-03
  2.43489993465E-03  2.47652115085E-03  2.51885382366E-03  2.56191011443E-03
  2.60570239240E-03  2.65024323824E-03  2.69554544769E-03  2.74162203517E-03
  2.78848623762E-03  2.83615151820E-03  2.88463157024E-03  2.93394032110E-03
  2.98409193624E-03  3.03510082325E-03  3.08698163600E-03  3.13974927883E-03
  3.19341891088E-03  3.24800595038E-03  3.30352607914E-03  3.35999524702E-03
  3.41742967651E-03  3.47584586742E-03  3.53526060158E-03  3.59569094771E-03
  3.65715426627E-03  3.71966821447E-03  3.78325075138E-03  3.84792014302E-03
  3.91369496765E-03  3.98059412112E-03  4.04863682225E-03  4.11784261839E-03
  4.18823139104E-03  4.25982336152E-03  4.33263909681E-03  4.40669951548E-03
  4.48202589365E-03  4.55863987113E-03  4.63656345762E-03  4.71581903908E-03
  4.79642938409E-03  4.87841765045E-03  4.96180739180E-03  5.04662256440E-03
  5.13288753400E-03  5.22062708287E-03  5.30986641687E-03  5.40063117275E-03
  5.49294742545E-03  5.58684169566E-03  5.68234095737E-03  5.77947264569E-03
  5.87826466465E-03  5.97874539531E-03  6.08094370382E-03  6.18488894979E-03
  6.29061099468E-03  6.39814021037E-03  6.50750748793E-03  6.61874424647E-03
  6.73188244216E-03  6.84695457740E-03  6.96399371020E-03  7.08303346363E-03
  7.20410803551E-03  7.32725220823E-03  7.45250135872E-03  7.57989146863E-03
  7.70945913469E-03  7.84124157917E-03  7.97527666062E-03  8.11160288473E-03
  8.25025941538E-03  8.39128608592E-03  8.53472341056E-03  8.68061259609E-03
  8.82899555364E-03  8.97991491076E-03  9.13341402367E-03  9.28953698969E-03
  9.44832865992E-03  9.60983465215E-03  9.77410136391E-03  9.94117598586E-03
  1.01111065153E-02  1.02839417700E-02  1.04597314021E-02  1.06385259127E-02
  1.08203766659E-02  1.10053359040E-02  1.11934567620E-02  1.13847932836E-02
  1.15794004361E-02  1.17773341261E-02  1.19786512164E-02  1.21834095414E-02
  1.23916679242E-02  1.26034861934E-02  1.28189252002E-02  1.30380468363E-02
  1.32609140509E-02  1.34875908694E-02  1.37181424119E-02  1.39526349112E-02
  1.41911357325E-02  1.44337133925E-02  1.46804375791E-02  1.49313791713E-02
  1.51866102598E-02  1.54462041675E-02  1.57102354708E-02  1.59787800208E-02
  1.62519149651E-02  1.65297187700E-02  1.68122712433E-02  1.70996535567E-02
  1.73919482698E-02  1.76892393530E-02  1.79916122124E-02  1.82991537138E-02
  1.86119522080E-02  1.89300975559E-02  1.92536811546E-02  1.95827959632E-02
  1.99175365302E-02  2.02579990200E-02  2.06042812409E-02  2.09564826731E-02
  2.13147044972E-02  2.16790496235E-02  2.20496227212E-02  2.24265302489E-02
  2.28098804847E-02  2.31997835579E-02  2.35963514798E-02  2.39996981770E-02
  2.44099395230E-02  2.48271933723E-02  2.52515795939E-02  2.56832201056E-02
  2.61222389094E-02  2.65687621270E-02  2.70229180359E-02  2.74848371061E-02
  2.79546520383E-02  2.84324978010E-02  2.89185116701E-02  2.94128332680E-02
  2.99156046038E-02  3.04269701139E-02  3.09470767037E-02  3.14760737898E-02
  3.20141133428E-02  3.25613499310E-02  3.31179407650E-02  3.36840457426E-02
  3.42598274946E-02  3.48454514322E-02  3.54410857936E-02  3.60469016932E-02
  3.66630731701E-02  3.72897772385E-02  3.79271939382E-02  3.85755063869E-02