
     Program PWSCF v.7.0 starts on 31Jan2022 at 23:48:11 

     This program is part of the open-source Quantum ESPRESSO suite
     for quantum simulation of materials; please cite
         "P. Giannozzi et al., J. Phys.:Condens. Matter 21 395502 (2009);
         "P. Giannozzi et al., J. Phys.:Condens. Matter 29 465901 (2017);
         "P. Giannozzi et al., J. Chem. Phys. 152 154105 (2020);
          URL http://www.quantum-espresso.org", 
     in publications or presentations arising from this work. More details at
     http://www.quantum-espresso.org/quote

     Parallel version (MPI), running on     4 processors

     MPI processes distributed on     1 nodes
     R & G space division:  proc/nbgrp/npool/nimage =       4
     251247 MiB available memory on the printing compute node when the environment starts
 
     Waiting for input...
     Reading input from standard input

     Current dimensions of program PWSCF are:
     Max number of different atomic species (ntypx) = 10
     Max number of k-points (npk) =  40000
     Max angular momentum in pseudopotentials (lmaxx) =  4

     Subspace diagonalization in iterative solution of the eigenvalue problem:
     a serial algorithm will be used

 
     Parallelization info
     --------------------
     sticks:   dense  smooth     PW     G-vecs:    dense   smooth      PW
     Min          78      78     27                 4836     4836     859
     Max          79      79     28                 4859     4859     866
     Sum         313     313    109                19373    19373    3447
 
     Using Slab Decomposition
 


     bravais-lattice index     =            4
     lattice parameter (alat)  =       4.6531  a.u.
     unit-cell volume          =     354.3310 (a.u.)^3
     number of atoms/cell      =            2
     number of atomic types    =            1
     number of electrons       =         8.00
     number of Kohn-Sham states=            8
     kinetic-energy cutoff     =      55.0000  Ry
     charge density cutoff     =     220.0000  Ry
     scf convergence threshold =      1.0E-06
     mixing beta               =       0.7000
     number of iterations used =            8  plain     mixing
     Exchange-correlation= PBE
                           (   1   4   3   4   0   0   0)

     celldm(1)=   4.653073  celldm(2)=   0.000000  celldm(3)=   4.061244
     celldm(4)=   0.000000  celldm(5)=   0.000000  celldm(6)=   0.000000

     crystal axes: (cart. coord. in units of alat)
               a(1) = (   1.000000   0.000000   0.000000 )  
               a(2) = (  -0.500000   0.866025   0.000000 )  
               a(3) = (   0.000000   0.000000   4.061244 )  

     reciprocal axes: (cart. coord. in units 2 pi/alat)
               b(1) = (  1.000000  0.577350  0.000000 )  
               b(2) = (  0.000000  1.154701  0.000000 )  
               b(3) = (  0.000000  0.000000  0.246230 )  


     PseudoPot. # 1 for C  read from file:
     ../pseudo/C.pbe-n-rrkjus_psl.0.1.UPF
     MD5 check sum: 96a6a315177d77e6c95bf6fd3870f9e3
     Pseudo is Ultrasoft + core correction, Zval =  4.0
     Generated using &quot;atomic&quot; code by A. Dal Corso  v.6.3MaX
     Using radial grid of 1073 points,  4 beta functions with: 
                l(1) =   0
                l(2) =   0
                l(3) =   1
                l(4) =   1
     Q(r) pseudized with 0 coefficients 


     atomic species   valence    mass     pseudopotential
        C              4.00    12.01070     C ( 1.00)

     24 Sym. Ops., with inversion, found



   Cartesian axes

     site n.     atom                  positions (alat units)
         1           C   tau(   1) = (   0.0000000   0.5773503   2.0306218  )
         2           C   tau(   2) = (   0.5000000   0.2886751   2.0306218  )

     number of k points=    19  Marzari-Vanderbilt smearing, width (Ry)=  0.0200
                       cart. coord. in units 2pi/alat
        k(    1) = (   0.0000000   0.0000000   0.0000000), wk =   0.0138889
        k(    2) = (   0.0000000   0.0962250   0.0000000), wk =   0.0833333
        k(    3) = (   0.0000000   0.1924501   0.0000000), wk =   0.0833333
        k(    4) = (   0.0000000   0.2886751   0.0000000), wk =   0.0833333
        k(    5) = (   0.0000000   0.3849002   0.0000000), wk =   0.0833333
        k(    6) = (   0.0000000   0.4811252   0.0000000), wk =   0.0833333
        k(    7) = (   0.0000000  -0.5773503   0.0000000), wk =   0.0416667
        k(    8) = (   0.0833333   0.1443376   0.0000000), wk =   0.0833333
        k(    9) = (   0.0833333   0.2405626   0.0000000), wk =   0.1666667
        k(   10) = (   0.0833333   0.3367877   0.0000000), wk =   0.1666667
        k(   11) = (   0.0833333   0.4330127   0.0000000), wk =   0.1666667
        k(   12) = (   0.0833333   0.5292377   0.0000000), wk =   0.1666667
        k(   13) = (   0.1666667   0.2886751   0.0000000), wk =   0.0833333
        k(   14) = (   0.1666667   0.3849002   0.0000000), wk =   0.1666667
        k(   15) = (   0.1666667   0.4811252   0.0000000), wk =   0.1666667
        k(   16) = (   0.1666667   0.5773503   0.0000000), wk =   0.0833333
        k(   17) = (   0.2500000   0.4330127   0.0000000), wk =   0.0833333
        k(   18) = (   0.2500000   0.5292377   0.0000000), wk =   0.1666667
        k(   19) = (   0.3333333   0.5773503   0.0000000), wk =   0.0277778

     Dense  grid:    19373 G-vectors     FFT dimensions: (  24,  24,  90)

     Estimated max dynamical RAM per process >       8.22 MB

     Estimated total dynamical RAM >      32.89 MB

     Check: negative core charge=   -0.000002

     Initial potential from superposition of free atoms

     starting charge       7.9999, renormalised to       8.0000

     negative rho (up, down):  4.743E-05 0.000E+00
     Starting wfcs are    8 randomized atomic wfcs

     total cpu time spent up to now is        0.2 secs

     Self-consistent Calculation

     iteration #  1     ecut=    55.00 Ry     beta= 0.70
     Davidson diagonalization with overlap
     ethr =  1.00E-02,  avg # of iterations =  7.6

     Threshold (ethr) on eigenvalues was too large:
     Diagonalizing with lowered threshold

     Davidson diagonalization with overlap
     ethr =  9.78E-04,  avg # of iterations =  5.6

     negative rho (up, down):  4.358E-08 0.000E+00

     total cpu time spent up to now is        0.6 secs

     total energy              =     -23.88054154 Ry
     estimated scf accuracy    <       0.19081110 Ry

     iteration #  2     ecut=    55.00 Ry     beta= 0.70
     Davidson diagonalization with overlap
     ethr =  2.39E-03,  avg # of iterations =  2.1

     negative rho (up, down):  2.659E-06 0.000E+00

     total cpu time spent up to now is        0.7 secs

     total energy              =     -23.89070878 Ry
     estimated scf accuracy    <       0.00635368 Ry

     iteration #  3     ecut=    55.00 Ry     beta= 0.70
     Davidson diagonalization with overlap
     c_bands:  2 eigenvalues not converged
     c_bands:  1 eigenvalues not converged
     c_bands:  1 eigenvalues not converged
     c_bands:  2 eigenvalues not converged
     c_bands:  1 eigenvalues not converged
     c_bands:  2 eigenvalues not converged
     c_bands:  1 eigenvalues not converged
     ethr =  7.94E-05,  avg # of iterations = 17.8

     negative rho (up, down):  2.315E-06 0.000E+00

     total cpu time spent up to now is        1.3 secs

     total energy              =     -23.91431469 Ry
     estimated scf accuracy    <       0.00832475 Ry

     iteration #  4     ecut=    55.00 Ry     beta= 0.70
     Davidson diagonalization with overlap
     ethr =  7.94E-05,  avg # of iterations =  2.7

     negative rho (up, down):  8.224E-06 0.000E+00

     total cpu time spent up to now is        1.4 secs

     total energy              =     -23.91560037 Ry
     estimated scf accuracy    <       0.01138980 Ry

     iteration #  5     ecut=    55.00 Ry     beta= 0.70
     Davidson diagonalization with overlap
     ethr =  7.94E-05,  avg # of iterations =  1.1

     negative rho (up, down):  3.082E-05 0.000E+00

     total cpu time spent up to now is        1.5 secs

     total energy              =     -23.90889666 Ry
     estimated scf accuracy    <       0.01252504 Ry

     iteration #  6     ecut=    55.00 Ry     beta= 0.70
     Davidson diagonalization with overlap
     ethr =  7.94E-05,  avg # of iterations =  1.8

     negative rho (up, down):  3.069E-05 0.000E+00

     total cpu time spent up to now is        1.6 secs

     total energy              =     -23.90971676 Ry
     estimated scf accuracy    <       0.00197651 Ry

     iteration #  7     ecut=    55.00 Ry     beta= 0.70
     Davidson diagonalization with overlap
     ethr =  2.47E-05,  avg # of iterations =  3.5

     negative rho (up, down):  3.043E-05 0.000E+00

     total cpu time spent up to now is        1.8 secs

     total energy              =     -23.90990021 Ry
     estimated scf accuracy    <       0.00197814 Ry

     iteration #  8     ecut=    55.00 Ry     beta= 0.70
     Davidson diagonalization with overlap
     ethr =  2.47E-05,  avg # of iterations =  1.3

     negative rho (up, down):  3.005E-05 0.000E+00

     total cpu time spent up to now is        1.9 secs

     total energy              =     -23.91000652 Ry
     estimated scf accuracy    <       0.00182067 Ry

     iteration #  9     ecut=    55.00 Ry     beta= 0.70
     Davidson diagonalization with overlap
     ethr =  2.28E-05,  avg # of iterations =  1.1

     negative rho (up, down):  2.956E-05 0.000E+00

     total cpu time spent up to now is        2.0 secs

     total energy              =     -23.91022714 Ry
     estimated scf accuracy    <       0.00178452 Ry

     iteration # 10     ecut=    55.00 Ry     beta= 0.70
     Davidson diagonalization with overlap
     ethr =  2.23E-05,  avg # of iterations =  1.8

     negative rho (up, down):  5.292E-05 0.000E+00

     total cpu time spent up to now is        2.2 secs

     total energy              =     -23.90918429 Ry
     estimated scf accuracy    <       0.00209939 Ry

     iteration # 11     ecut=    55.00 Ry     beta= 0.70
     Davidson diagonalization with overlap
     ethr =  2.23E-05,  avg # of iterations =  4.5

     negative rho (up, down):  4.527E-05 0.000E+00

     total cpu time spent up to now is        2.3 secs

     total energy              =     -23.90975439 Ry
     estimated scf accuracy    <       0.00145096 Ry

     iteration # 12     ecut=    55.00 Ry     beta= 0.70
     Davidson diagonalization with overlap
     ethr =  1.81E-05,  avg # of iterations =  1.6

     negative rho (up, down):  4.814E-05 0.000E+00

     total cpu time spent up to now is        2.4 secs

     total energy              =     -23.90994291 Ry
     estimated scf accuracy    <       0.00061348 Ry

     iteration # 13     ecut=    55.00 Ry     beta= 0.70
     Davidson diagonalization with overlap
     c_bands:  1 eigenvalues not converged
     ethr =  7.67E-06,  avg # of iterations =  5.2

     negative rho (up, down):  4.793E-05 0.000E+00

     total cpu time spent up to now is        2.6 secs

     total energy              =     -23.91000334 Ry
     estimated scf accuracy    <       0.00087600 Ry

     iteration # 14     ecut=    55.00 Ry     beta= 0.70
     Davidson diagonalization with overlap
     ethr =  7.67E-06,  avg # of iterations =  1.3

     negative rho (up, down):  3.297E-05 0.000E+00

     total cpu time spent up to now is        2.7 secs

     total energy              =     -23.90968135 Ry
     estimated scf accuracy    <       0.00089029 Ry

     iteration # 15     ecut=    55.00 Ry     beta= 0.70
     Davidson diagonalization with overlap
     ethr =  7.67E-06,  avg # of iterations =  1.6

     negative rho (up, down):  3.356E-05 0.000E+00

     total cpu time spent up to now is        2.8 secs

     total energy              =     -23.90969885 Ry
     estimated scf accuracy    <       0.00021783 Ry

     iteration # 16     ecut=    55.00 Ry     beta= 0.70
     Davidson diagonalization with overlap
     ethr =  2.72E-06,  avg # of iterations =  2.7

     negative rho (up, down):  3.729E-05 0.000E+00

     total cpu time spent up to now is        3.0 secs

     total energy              =     -23.90965322 Ry
     estimated scf accuracy    <       0.00016323 Ry

     iteration # 17     ecut=    55.00 Ry     beta= 0.70
     Davidson diagonalization with overlap
     ethr =  2.04E-06,  avg # of iterations =  3.9

     negative rho (up, down):  3.729E-05 0.000E+00

     total cpu time spent up to now is        3.1 secs

     total energy              =     -23.90963561 Ry
     estimated scf accuracy    <       0.00006032 Ry

     iteration # 18     ecut=    55.00 Ry     beta= 0.70
     Davidson diagonalization with overlap
     ethr =  7.54E-07,  avg # of iterations =  5.0

     negative rho (up, down):  3.772E-05 0.000E+00

     total cpu time spent up to now is        3.3 secs

     total energy              =     -23.90965627 Ry
     estimated scf accuracy    <       0.00000154 Ry

     iteration # 19     ecut=    55.00 Ry     beta= 0.70
     Davidson diagonalization with overlap
     ethr =  1.93E-08,  avg # of iterations =  5.5

     negative rho (up, down):  3.742E-05 0.000E+00

     total cpu time spent up to now is        3.5 secs

     End of self-consistent calculation

          k = 0.0000 0.0000 0.0000 (  2469 PWs)   bands (ev):

   -19.9917  -8.0921  -3.5151  -3.5151   2.6250   4.2422   5.3505   7.8821

          k = 0.0000 0.0962 0.0000 (  2477 PWs)   bands (ev):

   -19.8275  -7.8955  -4.1646  -3.8543   2.8493   4.4641   5.5708   7.9529

          k = 0.0000 0.1925 0.0000 (  2467 PWs)   bands (ev):

   -19.3369  -7.3111  -5.8004  -4.6484   3.5222   5.1276   6.2321   7.9168

          k = 0.0000 0.2887 0.0000 (  2460 PWs)   bands (ev):

   -18.5256  -7.8984  -6.3581  -5.5299   4.6420   6.1772   6.8922   7.2852

          k = 0.0000 0.3849 0.0000 (  2442 PWs)   bands (ev):

   -17.4055 -10.1026  -6.2648  -5.0867   4.4802   6.1998   7.3033   7.8009

          k = 0.0000 0.4811 0.0000 (  2428 PWs)   bands (ev):

   -16.0073 -12.2051  -6.7387  -3.6602   2.3377   7.0537   8.2213   9.7393

          k = 0.0000-0.5774 0.0000 (  2400 PWs)   bands (ev):

   -14.7367 -13.7183  -6.9013  -2.8131   1.2363   6.9766  10.5525  10.6917

          k = 0.0833 0.1443 0.0000 (  2461 PWs)   bands (ev):

   -19.5002  -7.5049  -5.1967  -4.5330   3.2981   4.9073   6.0133   8.2549

          k = 0.0833 0.2406 0.0000 (  2446 PWs)   bands (ev):

   -18.8492  -6.9052  -6.7350  -5.5326   4.1951   5.7862   6.8967   7.6794

          k = 0.0833 0.3368 0.0000 (  2447 PWs)   bands (ev):

   -17.8833  -8.9787  -6.4202  -5.6164   5.4981   5.5368   7.1292   8.0504

          k = 0.0833 0.4330 0.0000 (  2431 PWs)   bands (ev):

   -16.6212 -11.1032  -7.0559  -4.2333   3.2883   7.3047   7.8977   8.8480

          k = 0.0833 0.5292 0.0000 (  2409 PWs)   bands (ev):

   -15.1380 -13.0485  -7.3849  -2.9203   1.5138   7.7137   9.5311  10.9039

          k = 0.1667 0.2887 0.0000 (  2431 PWs)   bands (ev):

   -18.0437  -8.2338  -6.8970  -5.7956   5.3149   5.9543   6.8734   8.0045

          k = 0.1667 0.3849 0.0000 (  2453 PWs)   bands (ev):

   -16.9345  -9.9620  -7.9542  -4.5394   4.0003   6.8748   8.3535   9.4985

          k = 0.1667 0.4811 0.0000 (  2432 PWs)   bands (ev):

   -15.5563 -11.8756  -8.5299  -3.1089   2.0820   8.8532   9.6204  10.0982

          k = 0.1667 0.5774 0.0000 (  2418 PWs)   bands (ev):

   -14.3157 -13.3170  -8.7147  -2.2135   1.0105   9.5205  11.1314  11.2625

          k = 0.2500 0.4330 0.0000 (  2435 PWs)   bands (ev):

   -15.7045 -10.9950  -9.4414  -3.1933   2.3814   8.6388   9.7721  11.2515

          k = 0.2500 0.5292 0.0000 (  2442 PWs)   bands (ev):

   -14.2790 -12.4196 -10.1491  -1.8037   0.8569  10.4670  10.7645  11.7807

          k = 0.3333 0.5774 0.0000 (  2454 PWs)   bands (ev):

   -13.0586 -13.0586 -11.0518  -0.4442  -0.4442  10.1806  12.4233  12.4236

     the Fermi energy is    -0.4063 ev

!    total energy              =     -23.90966384 Ry
     estimated scf accuracy    <       0.00000057 Ry
     smearing contrib. (-TS)   =      -0.00018232 Ry
     internal energy E=F+TS    =     -23.90948152 Ry

     The total energy is F=E-TS. E is the sum of the following terms:
     one-electron contribution =     -90.80305184 Ry
     hartree contribution      =      47.23676468 Ry
     xc contribution           =      -8.30624361 Ry
     ewald contribution        =      27.96304925 Ry

     convergence has been achieved in  19 iterations

     Writing all to output data dir ../tmp/gr.save/
 
     init_run     :      0.09s CPU      0.15s WALL (       1 calls)
     electrons    :      2.53s CPU      3.30s WALL (       1 calls)

     Called by init_run:
     wfcinit      :      0.03s CPU      0.04s WALL (       1 calls)
     potinit      :      0.01s CPU      0.01s WALL (       1 calls)
     hinit0       :      0.03s CPU      0.08s WALL (       1 calls)

     Called by electrons:
     c_bands      :      2.12s CPU      2.75s WALL (      20 calls)
     sum_band     :      0.33s CPU      0.45s WALL (      20 calls)
     v_of_rho     :      0.05s CPU      0.06s WALL (      20 calls)
     newd         :      0.02s CPU      0.02s WALL (      20 calls)
     mix_rho      :      0.01s CPU      0.01s WALL (      20 calls)

     Called by c_bands:
     init_us_2    :      0.03s CPU      0.04s WALL (     779 calls)
     init_us_2:cp :      0.03s CPU      0.04s WALL (     779 calls)
     cegterg      :      2.05s CPU      2.65s WALL (     380 calls)

     Called by *egterg:
     cdiaghg      :      0.09s CPU      0.12s WALL (    1844 calls)
     h_psi        :      1.76s CPU      2.28s WALL (    1882 calls)
     s_psi        :      0.02s CPU      0.03s WALL (    1882 calls)
     g_psi        :      0.01s CPU      0.01s WALL (    1483 calls)

     Called by h_psi:
     h_psi:calbec :      0.06s CPU      0.08s WALL (    1882 calls)
     vloc_psi     :      1.67s CPU      2.16s WALL (    1882 calls)
     add_vuspsi   :      0.02s CPU      0.03s WALL (    1882 calls)

     General routines
     calbec       :      0.08s CPU      0.11s WALL (    2262 calls)
     fft          :      0.04s CPU      0.10s WALL (     221 calls)
     ffts         :      0.00s CPU      0.00s WALL (      20 calls)
     fftw         :      1.84s CPU      2.40s WALL (   21512 calls)
 
     Parallel routines
 
     PWSCF        :      2.67s CPU      3.51s WALL

 
   This run was terminated on:  23:48:14  31Jan2022            

=------------------------------------------------------------------------------=
   JOB DONE.
=------------------------------------------------------------------------------=
