
     Program PWSCF v.7.0 starts on 31Jan2022 at 23:48: 8 

     This program is part of the open-source Quantum ESPRESSO suite
     for quantum simulation of materials; please cite
         "P. Giannozzi et al., J. Phys.:Condens. Matter 21 395502 (2009);
         "P. Giannozzi et al., J. Phys.:Condens. Matter 29 465901 (2017);
         "P. Giannozzi et al., J. Chem. Phys. 152 154105 (2020);
          URL http://www.quantum-espresso.org", 
     in publications or presentations arising from this work. More details at
     http://www.quantum-espresso.org/quote

     Parallel version (MPI), running on     4 processors

     MPI processes distributed on     1 nodes
     R & G space division:  proc/nbgrp/npool/nimage =       4
     251248 MiB available memory on the printing compute node when the environment starts
 
     Waiting for input...
     Reading input from standard input

     Current dimensions of program PWSCF are:
     Max number of different atomic species (ntypx) = 10
     Max number of k-points (npk) =  40000
     Max angular momentum in pseudopotentials (lmaxx) =  4

     Subspace diagonalization in iterative solution of the eigenvalue problem:
     a serial algorithm will be used

 
     Parallelization info
     --------------------
     sticks:   dense  smooth     PW     G-vecs:    dense   smooth      PW
     Min          75      75     22                 4245     4245     743
     Max          76      76     23                 4254     4254     747
     Sum         301     301     91                16993    16993    2981
 
     Using Slab Decomposition
 


     bravais-lattice index     =            4
     lattice parameter (alat)  =       4.6531  a.u.
     unit-cell volume          =     354.3310 (a.u.)^3
     number of atoms/cell      =            2
     number of atomic types    =            1
     number of electrons       =         8.00
     number of Kohn-Sham states=            8
     kinetic-energy cutoff     =      50.0000  Ry
     charge density cutoff     =     200.0000  Ry
     scf convergence threshold =      1.0E-06
     mixing beta               =       0.7000
     number of iterations used =            8  plain     mixing
     Exchange-correlation= PBE
                           (   1   4   3   4   0   0   0)

     celldm(1)=   4.653073  celldm(2)=   0.000000  celldm(3)=   4.061244
     celldm(4)=   0.000000  celldm(5)=   0.000000  celldm(6)=   0.000000

     crystal axes: (cart. coord. in units of alat)
               a(1) = (   1.000000   0.000000   0.000000 )  
               a(2) = (  -0.500000   0.866025   0.000000 )  
               a(3) = (   0.000000   0.000000   4.061244 )  

     reciprocal axes: (cart. coord. in units 2 pi/alat)
               b(1) = (  1.000000  0.577350  0.000000 )  
               b(2) = (  0.000000  1.154701  0.000000 )  
               b(3) = (  0.000000  0.000000  0.246230 )  


     PseudoPot. # 1 for C  read from file:
     ../pseudo/C.pbe-n-rrkjus_psl.0.1.UPF
     MD5 check sum: 96a6a315177d77e6c95bf6fd3870f9e3
     Pseudo is Ultrasoft + core correction, Zval =  4.0
     Generated using &quot;atomic&quot; code by A. Dal Corso  v.6.3MaX
     Using radial grid of 1073 points,  4 beta functions with: 
                l(1) =   0
                l(2) =   0
                l(3) =   1
                l(4) =   1
     Q(r) pseudized with 0 coefficients 


     atomic species   valence    mass     pseudopotential
        C              4.00    12.01070     C ( 1.00)

     24 Sym. Ops., with inversion, found



   Cartesian axes

     site n.     atom                  positions (alat units)
         1           C   tau(   1) = (   0.0000000   0.5773503   2.0306218  )
         2           C   tau(   2) = (   0.5000000   0.2886751   2.0306218  )

     number of k points=    19  Marzari-Vanderbilt smearing, width (Ry)=  0.0200
                       cart. coord. in units 2pi/alat
        k(    1) = (   0.0000000   0.0000000   0.0000000), wk =   0.0138889
        k(    2) = (   0.0000000   0.0962250   0.0000000), wk =   0.0833333
        k(    3) = (   0.0000000   0.1924501   0.0000000), wk =   0.0833333
        k(    4) = (   0.0000000   0.2886751   0.0000000), wk =   0.0833333
        k(    5) = (   0.0000000   0.3849002   0.0000000), wk =   0.0833333
        k(    6) = (   0.0000000   0.4811252   0.0000000), wk =   0.0833333
        k(    7) = (   0.0000000  -0.5773503   0.0000000), wk =   0.0416667
        k(    8) = (   0.0833333   0.1443376   0.0000000), wk =   0.0833333
        k(    9) = (   0.0833333   0.2405626   0.0000000), wk =   0.1666667
        k(   10) = (   0.0833333   0.3367877   0.0000000), wk =   0.1666667
        k(   11) = (   0.0833333   0.4330127   0.0000000), wk =   0.1666667
        k(   12) = (   0.0833333   0.5292377   0.0000000), wk =   0.1666667
        k(   13) = (   0.1666667   0.2886751   0.0000000), wk =   0.0833333
        k(   14) = (   0.1666667   0.3849002   0.0000000), wk =   0.1666667
        k(   15) = (   0.1666667   0.4811252   0.0000000), wk =   0.1666667
        k(   16) = (   0.1666667   0.5773503   0.0000000), wk =   0.0833333
        k(   17) = (   0.2500000   0.4330127   0.0000000), wk =   0.0833333
        k(   18) = (   0.2500000   0.5292377   0.0000000), wk =   0.1666667
        k(   19) = (   0.3333333   0.5773503   0.0000000), wk =   0.0277778

     Dense  grid:    16993 G-vectors     FFT dimensions: (  24,  24,  90)

     Estimated max dynamical RAM per process >       7.34 MB

     Estimated total dynamical RAM >      29.36 MB

     Check: negative core charge=   -0.000006

     Initial potential from superposition of free atoms

     starting charge       7.9999, renormalised to       8.0000

     negative rho (up, down):  7.429E-05 0.000E+00
     Starting wfcs are    8 randomized atomic wfcs

     total cpu time spent up to now is        0.2 secs

     Self-consistent Calculation

     iteration #  1     ecut=    50.00 Ry     beta= 0.70
     Davidson diagonalization with overlap
     ethr =  1.00E-02,  avg # of iterations =  7.9

     negative rho (up, down):  1.221E-08 0.000E+00

     total cpu time spent up to now is        0.4 secs

     total energy              =     -23.83987529 Ry
     estimated scf accuracy    <       0.08907598 Ry

     iteration #  2     ecut=    50.00 Ry     beta= 0.70
     Davidson diagonalization with overlap
     ethr =  1.11E-03,  avg # of iterations =  6.2

     negative rho (up, down):  1.435E-04 0.000E+00

     total cpu time spent up to now is        0.6 secs

     total energy              =     -23.89792097 Ry
     estimated scf accuracy    <       0.02235747 Ry

     iteration #  3     ecut=    50.00 Ry     beta= 0.70
     Davidson diagonalization with overlap
     ethr =  2.79E-04,  avg # of iterations = 12.7

     negative rho (up, down):  2.338E-06 0.000E+00

     total cpu time spent up to now is        0.9 secs

     total energy              =     -23.90731532 Ry
     estimated scf accuracy    <       0.01739237 Ry

     iteration #  4     ecut=    50.00 Ry     beta= 0.70
     Davidson diagonalization with overlap
     ethr =  2.17E-04,  avg # of iterations =  2.1

     negative rho (up, down):  7.237E-05 0.000E+00

     total cpu time spent up to now is        1.0 secs

     total energy              =     -23.90724455 Ry
     estimated scf accuracy    <       0.00250822 Ry

     iteration #  5     ecut=    50.00 Ry     beta= 0.70
     Davidson diagonalization with overlap
     c_bands:  3 eigenvalues not converged
     ethr =  3.14E-05,  avg # of iterations = 10.4

     negative rho (up, down):  2.540E-05 0.000E+00

     total cpu time spent up to now is        1.3 secs

     total energy              =     -23.90906930 Ry
     estimated scf accuracy    <       0.00180853 Ry

     iteration #  6     ecut=    50.00 Ry     beta= 0.70
     Davidson diagonalization with overlap
     ethr =  2.26E-05,  avg # of iterations =  2.9

     negative rho (up, down):  2.538E-05 0.000E+00

     total cpu time spent up to now is        1.4 secs

     total energy              =     -23.90920393 Ry
     estimated scf accuracy    <       0.00015867 Ry

     iteration #  7     ecut=    50.00 Ry     beta= 0.70
     Davidson diagonalization with overlap
     c_bands:  1 eigenvalues not converged
     c_bands:  1 eigenvalues not converged
     ethr =  1.98E-06,  avg # of iterations = 11.4

     negative rho (up, down):  2.811E-05 0.000E+00

     total cpu time spent up to now is        1.7 secs

     total energy              =     -23.90940325 Ry
     estimated scf accuracy    <       0.00001854 Ry

     iteration #  8     ecut=    50.00 Ry     beta= 0.70
     Davidson diagonalization with overlap
     ethr =  2.32E-07,  avg # of iterations =  4.5

     negative rho (up, down):  3.749E-05 0.000E+00

     total cpu time spent up to now is        1.9 secs

     total energy              =     -23.90944107 Ry
     estimated scf accuracy    <       0.00005504 Ry

     iteration #  9     ecut=    50.00 Ry     beta= 0.70
     Davidson diagonalization with overlap
     ethr =  2.32E-07,  avg # of iterations =  2.2

     negative rho (up, down):  3.705E-05 0.000E+00

     total cpu time spent up to now is        2.0 secs

     total energy              =     -23.90940654 Ry
     estimated scf accuracy    <       0.00010666 Ry

     iteration # 10     ecut=    50.00 Ry     beta= 0.70
     Davidson diagonalization with overlap
     ethr =  2.32E-07,  avg # of iterations =  1.2

     negative rho (up, down):  3.268E-05 0.000E+00

     total cpu time spent up to now is        2.1 secs

     total energy              =     -23.90939187 Ry
     estimated scf accuracy    <       0.00004407 Ry

     iteration # 11     ecut=    50.00 Ry     beta= 0.70
     Davidson diagonalization with overlap
     ethr =  2.32E-07,  avg # of iterations =  1.9

     negative rho (up, down):  3.227E-05 0.000E+00

     total cpu time spent up to now is        2.2 secs

     total energy              =     -23.90939249 Ry
     estimated scf accuracy    <       0.00001193 Ry

     iteration # 12     ecut=    50.00 Ry     beta= 0.70
     Davidson diagonalization with overlap
     ethr =  1.49E-07,  avg # of iterations =  1.1

     negative rho (up, down):  3.651E-05 0.000E+00

     total cpu time spent up to now is        2.3 secs

     total energy              =     -23.90940315 Ry
     estimated scf accuracy    <       0.00000776 Ry

     iteration # 13     ecut=    50.00 Ry     beta= 0.70
     Davidson diagonalization with overlap
     ethr =  9.69E-08,  avg # of iterations =  1.5

     negative rho (up, down):  2.812E-05 0.000E+00

     total cpu time spent up to now is        2.5 secs

     total energy              =     -23.90938734 Ry
     estimated scf accuracy    <       0.00002702 Ry

     iteration # 14     ecut=    50.00 Ry     beta= 0.70
     Davidson diagonalization with overlap
     ethr =  9.69E-08,  avg # of iterations =  3.7

     negative rho (up, down):  2.777E-05 0.000E+00

     total cpu time spent up to now is        2.6 secs

     End of self-consistent calculation

          k = 0.0000 0.0000 0.0000 (  2083 PWs)   bands (ev):

   -19.9868  -8.0874  -3.5083  -3.5083   2.5352   4.1910   5.1562   7.8885

          k = 0.0000 0.0962 0.0000 (  2113 PWs)   bands (ev):

   -19.8226  -7.8909  -4.1579  -3.8476   2.7601   4.4134   5.3761   7.9610

          k = 0.0000 0.1925 0.0000 (  2107 PWs)   bands (ev):

   -19.3320  -7.3064  -5.7940  -4.6417   3.4346   5.0776   6.0372   7.9220

          k = 0.0000 0.2887 0.0000 (  2119 PWs)   bands (ev):

   -18.5205  -7.8922  -6.3533  -5.5234   4.5572   6.1336   6.8923   7.1125

          k = 0.0000 0.3849 0.0000 (  2139 PWs)   bands (ev):

   -17.4004 -10.0968  -6.2584  -5.0819   4.4853   6.1203   7.3036   7.7542

          k = 0.0000 0.4811 0.0000 (  2125 PWs)   bands (ev):

   -16.0022 -12.1995  -6.7324  -3.6552   2.3428   7.0587   8.1453   9.6962

          k = 0.0000-0.5774 0.0000 (  2132 PWs)   bands (ev):

   -14.7316 -13.7129  -6.8951  -2.8079   1.2411   6.9816  10.4911  10.6217

          k = 0.0833 0.1443 0.0000 (  2111 PWs)   bands (ev):

   -19.4952  -7.5002  -5.1902  -4.5264   3.2099   4.8572   5.8180   8.2636

          k = 0.0833 0.2406 0.0000 (  2112 PWs)   bands (ev):

   -18.8442  -6.8990  -6.7303  -5.5262   4.1091   5.7368   6.7007   7.6848

          k = 0.0833 0.3368 0.0000 (  2120 PWs)   bands (ev):

   -17.8783  -8.9727  -6.4138  -5.6116   5.4543   5.5031   7.0823   7.9444

          k = 0.0833 0.4330 0.0000 (  2126 PWs)   bands (ev):

   -16.6161 -11.0975  -7.0497  -4.2283   3.2934   7.2308   7.8973   8.8036

          k = 0.0833 0.5292 0.0000 (  2123 PWs)   bands (ev):

   -15.1328 -13.0430  -7.3787  -2.9151   1.5188   7.7188   9.4609  10.8689

          k = 0.1667 0.2887 0.0000 (  2101 PWs)   bands (ev):

   -18.0386  -8.2278  -6.8907  -5.7907   5.2316   5.9599   6.8263   7.8082

          k = 0.1667 0.3849 0.0000 (  2113 PWs)   bands (ev):

   -16.9293  -9.9561  -7.9479  -4.5345   4.0058   6.7959   8.3121   9.3210

          k = 0.1667 0.4811 0.0000 (  2107 PWs)   bands (ev):

   -15.5511 -11.8700  -8.5237  -3.1038   2.0873   8.7832   9.6225  10.0669

          k = 0.1667 0.5774 0.0000 (  2126 PWs)   bands (ev):

   -14.3104 -13.3114  -8.7086  -2.2083   1.0155   9.5258  11.0788  11.2466

          k = 0.2500 0.4330 0.0000 (  2105 PWs)   bands (ev):

   -15.6993 -10.9892  -9.4353  -3.1882   2.3868   8.5665   9.7433  11.0589

          k = 0.2500 0.5292 0.0000 (  2106 PWs)   bands (ev):

   -14.2736 -12.4140 -10.1430  -1.7985   0.8622  10.4640  10.7072  11.7830

          k = 0.3333 0.5774 0.0000 (  2115 PWs)   bands (ev):

   -13.0531 -13.0531 -11.0458  -0.4390  -0.4390  10.1812  12.4098  12.4105

     the Fermi energy is    -0.4010 ev

!    total energy              =     -23.90939204 Ry
     estimated scf accuracy    <       0.00000023 Ry
     smearing contrib. (-TS)   =      -0.00018232 Ry
     internal energy E=F+TS    =     -23.90920972 Ry

     The total energy is F=E-TS. E is the sum of the following terms:
     one-electron contribution =     -90.80356564 Ry
     hartree contribution      =      47.23792063 Ry
     xc contribution           =      -8.30661393 Ry
     ewald contribution        =      27.96304921 Ry

     convergence has been achieved in  14 iterations

     Writing all to output data dir ../tmp/gr.save/
 
     init_run     :      0.08s CPU      0.15s WALL (       1 calls)
     electrons    :      1.81s CPU      2.41s WALL (       1 calls)

     Called by init_run:
     wfcinit      :      0.03s CPU      0.04s WALL (       1 calls)
     potinit      :      0.01s CPU      0.01s WALL (       1 calls)
     hinit0       :      0.03s CPU      0.08s WALL (       1 calls)

     Called by electrons:
     c_bands      :      1.55s CPU      2.04s WALL (      14 calls)
     sum_band     :      0.20s CPU      0.30s WALL (      14 calls)
     v_of_rho     :      0.04s CPU      0.05s WALL (      15 calls)
     newd         :      0.01s CPU      0.02s WALL (      15 calls)
     mix_rho      :      0.01s CPU      0.01s WALL (      14 calls)

     Called by c_bands:
     init_us_2    :      0.02s CPU      0.02s WALL (     551 calls)
     init_us_2:cp :      0.02s CPU      0.02s WALL (     551 calls)
     cegterg      :      1.50s CPU      1.98s WALL (     266 calls)

     Called by *egterg:
     cdiaghg      :      0.08s CPU      0.11s WALL (    1592 calls)
     h_psi        :      1.29s CPU      1.70s WALL (    1611 calls)
     s_psi        :      0.02s CPU      0.02s WALL (    1611 calls)
     g_psi        :      0.00s CPU      0.01s WALL (    1326 calls)

     Called by h_psi:
     h_psi:calbec :      0.05s CPU      0.06s WALL (    1611 calls)
     vloc_psi     :      1.23s CPU      1.61s WALL (    1611 calls)
     add_vuspsi   :      0.02s CPU      0.02s WALL (    1611 calls)

     General routines
     calbec       :      0.05s CPU      0.07s WALL (    1877 calls)
     fft          :      0.02s CPU      0.08s WALL (     165 calls)
     ffts         :      0.00s CPU      0.00s WALL (      14 calls)
     fftw         :      1.32s CPU      1.77s WALL (   16618 calls)
 
     Parallel routines
 
     PWSCF        :      1.93s CPU      2.62s WALL

 
   This run was terminated on:  23:48:10  31Jan2022            

=------------------------------------------------------------------------------=
   JOB DONE.
=------------------------------------------------------------------------------=
