
     Program PWSCF v.7.0 starts on 31Jan2022 at 23:48:27 

     This program is part of the open-source Quantum ESPRESSO suite
     for quantum simulation of materials; please cite
         "P. Giannozzi et al., J. Phys.:Condens. Matter 21 395502 (2009);
         "P. Giannozzi et al., J. Phys.:Condens. Matter 29 465901 (2017);
         "P. Giannozzi et al., J. Chem. Phys. 152 154105 (2020);
          URL http://www.quantum-espresso.org", 
     in publications or presentations arising from this work. More details at
     http://www.quantum-espresso.org/quote

     Parallel version (MPI), running on     4 processors

     MPI processes distributed on     1 nodes
     R & G space division:  proc/nbgrp/npool/nimage =       4
     251244 MiB available memory on the printing compute node when the environment starts
 
     Waiting for input...
     Reading input from standard input

     Current dimensions of program PWSCF are:
     Max number of different atomic species (ntypx) = 10
     Max number of k-points (npk) =  40000
     Max angular momentum in pseudopotentials (lmaxx) =  4

     Subspace diagonalization in iterative solution of the eigenvalue problem:
     a serial algorithm will be used

 
     Parallelization info
     --------------------
     sticks:   dense  smooth     PW     G-vecs:    dense   smooth      PW
     Min         105     105     30                 7029     7029    1168
     Max         106     106     31                 7046     7046    1187
     Sum         421     421    121                28133    28133    4699
 
     Using Slab Decomposition
 


     bravais-lattice index     =            4
     lattice parameter (alat)  =       4.6531  a.u.
     unit-cell volume          =     354.3310 (a.u.)^3
     number of atoms/cell      =            2
     number of atomic types    =            1
     number of electrons       =         8.00
     number of Kohn-Sham states=            8
     kinetic-energy cutoff     =      70.0000  Ry
     charge density cutoff     =     280.0000  Ry
     scf convergence threshold =      1.0E-06
     mixing beta               =       0.7000
     number of iterations used =            8  plain     mixing
     Exchange-correlation= PBE
                           (   1   4   3   4   0   0   0)

     celldm(1)=   4.653073  celldm(2)=   0.000000  celldm(3)=   4.061244
     celldm(4)=   0.000000  celldm(5)=   0.000000  celldm(6)=   0.000000

     crystal axes: (cart. coord. in units of alat)
               a(1) = (   1.000000   0.000000   0.000000 )  
               a(2) = (  -0.500000   0.866025   0.000000 )  
               a(3) = (   0.000000   0.000000   4.061244 )  

     reciprocal axes: (cart. coord. in units 2 pi/alat)
               b(1) = (  1.000000  0.577350  0.000000 )  
               b(2) = (  0.000000  1.154701  0.000000 )  
               b(3) = (  0.000000  0.000000  0.246230 )  


     PseudoPot. # 1 for C  read from file:
     ../pseudo/C.pbe-n-rrkjus_psl.0.1.UPF
     MD5 check sum: 96a6a315177d77e6c95bf6fd3870f9e3
     Pseudo is Ultrasoft + core correction, Zval =  4.0
     Generated using &quot;atomic&quot; code by A. Dal Corso  v.6.3MaX
     Using radial grid of 1073 points,  4 beta functions with: 
                l(1) =   0
                l(2) =   0
                l(3) =   1
                l(4) =   1
     Q(r) pseudized with 0 coefficients 


     atomic species   valence    mass     pseudopotential
        C              4.00    12.01070     C ( 1.00)

     24 Sym. Ops., with inversion, found



   Cartesian axes

     site n.     atom                  positions (alat units)
         1           C   tau(   1) = (   0.0000000   0.5773503   2.0306218  )
         2           C   tau(   2) = (   0.5000000   0.2886751   2.0306218  )

     number of k points=    19  Marzari-Vanderbilt smearing, width (Ry)=  0.0200
                       cart. coord. in units 2pi/alat
        k(    1) = (   0.0000000   0.0000000   0.0000000), wk =   0.0138889
        k(    2) = (   0.0000000   0.0962250   0.0000000), wk =   0.0833333
        k(    3) = (   0.0000000   0.1924501   0.0000000), wk =   0.0833333
        k(    4) = (   0.0000000   0.2886751   0.0000000), wk =   0.0833333
        k(    5) = (   0.0000000   0.3849002   0.0000000), wk =   0.0833333
        k(    6) = (   0.0000000   0.4811252   0.0000000), wk =   0.0833333
        k(    7) = (   0.0000000  -0.5773503   0.0000000), wk =   0.0416667
        k(    8) = (   0.0833333   0.1443376   0.0000000), wk =   0.0833333
        k(    9) = (   0.0833333   0.2405626   0.0000000), wk =   0.1666667
        k(   10) = (   0.0833333   0.3367877   0.0000000), wk =   0.1666667
        k(   11) = (   0.0833333   0.4330127   0.0000000), wk =   0.1666667
        k(   12) = (   0.0833333   0.5292377   0.0000000), wk =   0.1666667
        k(   13) = (   0.1666667   0.2886751   0.0000000), wk =   0.0833333
        k(   14) = (   0.1666667   0.3849002   0.0000000), wk =   0.1666667
        k(   15) = (   0.1666667   0.4811252   0.0000000), wk =   0.1666667
        k(   16) = (   0.1666667   0.5773503   0.0000000), wk =   0.0833333
        k(   17) = (   0.2500000   0.4330127   0.0000000), wk =   0.0833333
        k(   18) = (   0.2500000   0.5292377   0.0000000), wk =   0.1666667
        k(   19) = (   0.3333333   0.5773503   0.0000000), wk =   0.0277778

     Dense  grid:    28133 G-vectors     FFT dimensions: (  25,  25, 108)

     Estimated max dynamical RAM per process >      11.66 MB

     Estimated total dynamical RAM >      46.65 MB

     Check: negative core charge=   -0.000004

     Initial potential from superposition of free atoms

     starting charge       7.9999, renormalised to       8.0000

     negative rho (up, down):  1.831E-06 0.000E+00
     Starting wfcs are    8 randomized atomic wfcs

     total cpu time spent up to now is        0.2 secs

     Self-consistent Calculation

     iteration #  1     ecut=    70.00 Ry     beta= 0.70
     Davidson diagonalization with overlap
     ethr =  1.00E-02,  avg # of iterations =  6.8

     Threshold (ethr) on eigenvalues was too large:
     Diagonalizing with lowered threshold

     Davidson diagonalization with overlap
     ethr =  8.21E-04,  avg # of iterations =  6.8

     negative rho (up, down):  7.753E-07 0.000E+00

     total cpu time spent up to now is        0.8 secs

     total energy              =     -23.88139406 Ry
     estimated scf accuracy    <       0.19335920 Ry

     iteration #  2     ecut=    70.00 Ry     beta= 0.70
     Davidson diagonalization with overlap
     ethr =  2.42E-03,  avg # of iterations =  2.1

     negative rho (up, down):  3.872E-07 0.000E+00

     total cpu time spent up to now is        1.0 secs

     total energy              =     -23.89148249 Ry
     estimated scf accuracy    <       0.00612261 Ry

     iteration #  3     ecut=    70.00 Ry     beta= 0.70
     Davidson diagonalization with overlap
     c_bands:  1 eigenvalues not converged
     c_bands:  3 eigenvalues not converged
     c_bands:  1 eigenvalues not converged
     c_bands:  1 eigenvalues not converged
     c_bands:  3 eigenvalues not converged
     c_bands:  2 eigenvalues not converged
     c_bands:  1 eigenvalues not converged
     c_bands:  1 eigenvalues not converged
     c_bands:  1 eigenvalues not converged
     c_bands:  1 eigenvalues not converged
     c_bands:  1 eigenvalues not converged
     c_bands:  2 eigenvalues not converged
     ethr =  7.65E-05,  avg # of iterations = 18.6

     negative rho (up, down):  3.085E-07 0.000E+00

     total cpu time spent up to now is        1.7 secs

     total energy              =     -23.91470590 Ry
     estimated scf accuracy    <       0.00832105 Ry

     iteration #  4     ecut=    70.00 Ry     beta= 0.70
     Davidson diagonalization with overlap
     ethr =  7.65E-05,  avg # of iterations =  2.9

     negative rho (up, down):  1.086E-06 0.000E+00

     total cpu time spent up to now is        1.9 secs

     total energy              =     -23.91703907 Ry
     estimated scf accuracy    <       0.01116601 Ry

     iteration #  5     ecut=    70.00 Ry     beta= 0.70
     Davidson diagonalization with overlap
     ethr =  7.65E-05,  avg # of iterations =  1.2

     negative rho (up, down):  9.469E-06 0.000E+00

     total cpu time spent up to now is        2.0 secs

     total energy              =     -23.90973982 Ry
     estimated scf accuracy    <       0.01425477 Ry

     iteration #  6     ecut=    70.00 Ry     beta= 0.70
     Davidson diagonalization with overlap
     ethr =  7.65E-05,  avg # of iterations =  1.8

     negative rho (up, down):  9.712E-06 0.000E+00

     total cpu time spent up to now is        2.2 secs

     total energy              =     -23.91035289 Ry
     estimated scf accuracy    <       0.00281699 Ry

     iteration #  7     ecut=    70.00 Ry     beta= 0.70
     Davidson diagonalization with overlap
     ethr =  3.52E-05,  avg # of iterations =  1.6

     negative rho (up, down):  9.520E-06 0.000E+00

     total cpu time spent up to now is        2.4 secs

     total energy              =     -23.91053479 Ry
     estimated scf accuracy    <       0.00247486 Ry

     iteration #  8     ecut=    70.00 Ry     beta= 0.70
     Davidson diagonalization with overlap
     ethr =  3.09E-05,  avg # of iterations =  1.8

     negative rho (up, down):  9.600E-06 0.000E+00

     total cpu time spent up to now is        2.5 secs

     total energy              =     -23.91060333 Ry
     estimated scf accuracy    <       0.00236128 Ry

     iteration #  9     ecut=    70.00 Ry     beta= 0.70
     Davidson diagonalization with overlap
     ethr =  2.95E-05,  avg # of iterations =  1.1

     negative rho (up, down):  1.006E-05 0.000E+00

     total cpu time spent up to now is        2.7 secs

     total energy              =     -23.91059814 Ry
     estimated scf accuracy    <       0.00224225 Ry

     iteration # 10     ecut=    70.00 Ry     beta= 0.70
     Davidson diagonalization with overlap
     ethr =  2.80E-05,  avg # of iterations =  1.2

     negative rho (up, down):  1.072E-05 0.000E+00

     total cpu time spent up to now is        2.8 secs

     total energy              =     -23.91040241 Ry
     estimated scf accuracy    <       0.00206248 Ry

     iteration # 11     ecut=    70.00 Ry     beta= 0.70
     Davidson diagonalization with overlap
     ethr =  2.58E-05,  avg # of iterations =  1.2

     negative rho (up, down):  2.138E-05 0.000E+00

     total cpu time spent up to now is        3.0 secs

     total energy              =     -23.90981710 Ry
     estimated scf accuracy    <       0.00132576 Ry

     iteration # 12     ecut=    70.00 Ry     beta= 0.70
     Davidson diagonalization with overlap
     ethr =  1.66E-05,  avg # of iterations =  3.0

     negative rho (up, down):  2.723E-05 0.000E+00

     total cpu time spent up to now is        3.2 secs

     total energy              =     -23.91002199 Ry
     estimated scf accuracy    <       0.00004728 Ry

     iteration # 13     ecut=    70.00 Ry     beta= 0.70
     Davidson diagonalization with overlap
     c_bands:  1 eigenvalues not converged
     c_bands:  1 eigenvalues not converged
     c_bands:  1 eigenvalues not converged
     ethr =  5.91E-07,  avg # of iterations = 13.4

     negative rho (up, down):  2.714E-05 0.000E+00

     total cpu time spent up to now is        3.7 secs

     total energy              =     -23.91031512 Ry
     estimated scf accuracy    <       0.00027795 Ry

     iteration # 14     ecut=    70.00 Ry     beta= 0.70
     Davidson diagonalization with overlap
     ethr =  5.91E-07,  avg # of iterations =  1.8

     negative rho (up, down):  2.575E-05 0.000E+00

     total cpu time spent up to now is        3.9 secs

     total energy              =     -23.91027187 Ry
     estimated scf accuracy    <       0.00028692 Ry

     iteration # 15     ecut=    70.00 Ry     beta= 0.70
     Davidson diagonalization with overlap
     ethr =  5.91E-07,  avg # of iterations =  1.3

     negative rho (up, down):  1.823E-05 0.000E+00

     total cpu time spent up to now is        4.0 secs

     total energy              =     -23.91014641 Ry
     estimated scf accuracy    <       0.00020842 Ry

     iteration # 16     ecut=    70.00 Ry     beta= 0.70
     Davidson diagonalization with overlap
     ethr =  5.91E-07,  avg # of iterations =  4.5

     negative rho (up, down):  1.794E-05 0.000E+00

     total cpu time spent up to now is        4.3 secs

     total energy              =     -23.91017989 Ry
     estimated scf accuracy    <       0.00000419 Ry

     iteration # 17     ecut=    70.00 Ry     beta= 0.70
     Davidson diagonalization with overlap
     ethr =  5.24E-08,  avg # of iterations =  4.2

     negative rho (up, down):  1.884E-05 0.000E+00

     total cpu time spent up to now is        4.5 secs

     total energy              =     -23.91018824 Ry
     estimated scf accuracy    <       0.00000302 Ry

     iteration # 18     ecut=    70.00 Ry     beta= 0.70
     Davidson diagonalization with overlap
     ethr =  3.77E-08,  avg # of iterations =  3.2

     negative rho (up, down):  2.073E-05 0.000E+00

     total cpu time spent up to now is        4.7 secs

     total energy              =     -23.91020624 Ry
     estimated scf accuracy    <       0.00000729 Ry

     iteration # 19     ecut=    70.00 Ry     beta= 0.70
     Davidson diagonalization with overlap
     ethr =  3.77E-08,  avg # of iterations =  4.1

     negative rho (up, down):  1.943E-05 0.000E+00

     total cpu time spent up to now is        4.9 secs

     total energy              =     -23.91019499 Ry
     estimated scf accuracy    <       0.00005797 Ry

     iteration # 20     ecut=    70.00 Ry     beta= 0.70
     Davidson diagonalization with overlap
     ethr =  3.77E-08,  avg # of iterations =  1.9

     negative rho (up, down):  1.861E-05 0.000E+00

     total cpu time spent up to now is        5.1 secs

     total energy              =     -23.91018552 Ry
     estimated scf accuracy    <       0.00002496 Ry

     iteration # 21     ecut=    70.00 Ry     beta= 0.70
     Davidson diagonalization with overlap
     ethr =  3.77E-08,  avg # of iterations =  4.0

     negative rho (up, down):  1.888E-05 0.000E+00

     total cpu time spent up to now is        5.3 secs

     total energy              =     -23.91018781 Ry
     estimated scf accuracy    <       0.00000280 Ry

     iteration # 22     ecut=    70.00 Ry     beta= 0.70
     Davidson diagonalization with overlap
     ethr =  3.49E-08,  avg # of iterations =  1.5

     negative rho (up, down):  1.875E-05 0.000E+00

     total cpu time spent up to now is        5.5 secs

     End of self-consistent calculation

          k = 0.0000 0.0000 0.0000 (  3519 PWs)   bands (ev):

   -19.9984  -8.0969  -3.5250  -3.5250   2.5550   4.2012   5.1974   7.8725

          k = 0.0000 0.0962 0.0000 (  3489 PWs)   bands (ev):

   -19.8343  -7.9003  -4.1741  -3.8640   2.7797   4.4235   5.4165   7.9437

          k = 0.0000 0.1925 0.0000 (  3497 PWs)   bands (ev):

   -19.3438  -7.3160  -5.8096  -4.6579   3.4539   5.0876   6.0775   7.9070

          k = 0.0000 0.2887 0.0000 (  3507 PWs)   bands (ev):

   -18.5325  -7.9072  -6.3630  -5.5394   4.5758   6.1416   6.8820   7.1479

          k = 0.0000 0.3849 0.0000 (  3499 PWs)   bands (ev):

   -17.4127 -10.1110  -6.2742  -5.0918   4.4741   6.1376   7.2921   7.7632

          k = 0.0000 0.4811 0.0000 (  3504 PWs)   bands (ev):

   -16.0147 -12.2132  -6.7480  -3.6655   2.3322   7.0463   8.1617   9.7043

          k = 0.0000-0.5774 0.0000 (  3508 PWs)   bands (ev):

   -14.7443 -13.7263  -6.9106  -2.8185   1.2309   6.9693  10.5050  10.6355

          k = 0.0833 0.1443 0.0000 (  3507 PWs)   bands (ev):

   -19.5070  -7.5098  -5.2060  -4.5425   3.2294   4.8671   5.8584   8.2449

          k = 0.0833 0.2406 0.0000 (  3490 PWs)   bands (ev):

   -18.8561  -6.9142  -6.7399  -5.5420   4.1280   5.7465   6.7411   7.6731

          k = 0.0833 0.3368 0.0000 (  3503 PWs)   bands (ev):

   -17.8904  -8.9873  -6.4294  -5.6213   5.4724   5.4917   7.0914   7.9621

          k = 0.0833 0.4330 0.0000 (  3502 PWs)   bands (ev):

   -16.6285 -11.1114  -7.0651  -4.2384   3.2824   7.2466   7.8859   8.8121

          k = 0.0833 0.5292 0.0000 (  3516 PWs)   bands (ev):

   -15.1455 -13.0565  -7.3940  -2.9256   1.5084   7.7061   9.4760  10.8746

          k = 0.1667 0.2887 0.0000 (  3504 PWs)   bands (ev):

   -18.0508  -8.2426  -6.9061  -5.8006   5.2499   5.9479   6.8355   7.8485

          k = 0.1667 0.3849 0.0000 (  3501 PWs)   bands (ev):

   -16.9417  -9.9704  -7.9630  -4.5445   3.9943   6.8132   8.3189   9.3582

          k = 0.1667 0.4811 0.0000 (  3514 PWs)   bands (ev):

   -15.5638 -11.8837  -8.5386  -3.1142   2.0763   8.7981   9.6100  10.0717

          k = 0.1667 0.5774 0.0000 (  3510 PWs)   bands (ev):

   -14.3233 -13.3249  -8.7234  -2.2190   1.0049   9.5126  11.0899  11.2476

          k = 0.2500 0.4330 0.0000 (  3502 PWs)   bands (ev):

   -15.7119 -11.0032  -9.4499  -3.1985   2.3755   8.5821   9.7478  11.0985

          k = 0.2500 0.5292 0.0000 (  3518 PWs)   bands (ev):

   -14.2866 -12.4276 -10.1575  -1.8092   0.8512  10.4606  10.7188  11.7709

          k = 0.3333 0.5774 0.0000 (  3510 PWs)   bands (ev):

   -13.0664 -13.0664 -11.0602  -0.4498  -0.4498  10.1767  12.4070  12.4075

     the Fermi energy is    -0.4119 ev

!    total energy              =     -23.91018738 Ry
     estimated scf accuracy    <       0.00000086 Ry
     smearing contrib. (-TS)   =      -0.00018232 Ry
     internal energy E=F+TS    =     -23.91000505 Ry

     The total energy is F=E-TS. E is the sum of the following terms:
     one-electron contribution =     -90.80855872 Ry
     hartree contribution      =      47.24230641 Ry
     xc contribution           =      -8.30680201 Ry
     ewald contribution        =      27.96304927 Ry

     convergence has been achieved in  22 iterations

     Writing all to output data dir ../tmp/gr.save/
 
     init_run     :      0.11s CPU      0.19s WALL (       1 calls)
     electrons    :      4.15s CPU      5.26s WALL (       1 calls)

     Called by init_run:
     wfcinit      :      0.05s CPU      0.06s WALL (       1 calls)
     potinit      :      0.01s CPU      0.01s WALL (       1 calls)
     hinit0       :      0.03s CPU      0.09s WALL (       1 calls)

     Called by electrons:
     c_bands      :      3.48s CPU      4.41s WALL (      23 calls)
     sum_band     :      0.52s CPU      0.70s WALL (      23 calls)
     v_of_rho     :      0.09s CPU      0.10s WALL (      23 calls)
     newd         :      0.04s CPU      0.04s WALL (      23 calls)
     mix_rho      :      0.02s CPU      0.02s WALL (      23 calls)

     Called by c_bands:
     init_us_2    :      0.05s CPU      0.06s WALL (     893 calls)
     init_us_2:cp :      0.05s CPU      0.06s WALL (     893 calls)
     cegterg      :      3.35s CPU      4.25s WALL (     437 calls)

     Called by *egterg:
     cdiaghg      :      0.11s CPU      0.14s WALL (    2126 calls)
     h_psi        :      2.92s CPU      3.69s WALL (    2164 calls)
     s_psi        :      0.03s CPU      0.04s WALL (    2164 calls)
     g_psi        :      0.01s CPU      0.02s WALL (    1708 calls)

     Called by h_psi:
     h_psi:calbec :      0.08s CPU      0.10s WALL (    2164 calls)
     vloc_psi     :      2.79s CPU      3.53s WALL (    2164 calls)
     add_vuspsi   :      0.04s CPU      0.05s WALL (    2164 calls)

     General routines
     calbec       :      0.10s CPU      0.13s WALL (    2601 calls)
     fft          :      0.06s CPU      0.12s WALL (     254 calls)
     ffts         :      0.00s CPU      0.01s WALL (      23 calls)
     fftw         :      3.07s CPU      3.91s WALL (   25820 calls)
 
     Parallel routines
 
     PWSCF        :      4.30s CPU      5.52s WALL

 
   This run was terminated on:  23:48:32  31Jan2022            

=------------------------------------------------------------------------------=
   JOB DONE.
=------------------------------------------------------------------------------=
