<PP_INFO>
Generated using Vanderbilt code, version   7  3  6                              
Author: kfg        Generation date:   13    5 2013                              
Automatically converted from original format                                    
    1        The Pseudo was generated with a Scalar-Relativistic Calculation
  1.60000000000E+00    Local Potential cutoff radius
nl pn  l   occ               Rcut            Rcut US             E pseu
4S  4  0  2.00      0.00000000000      1.50000000000     -1.27056817000
4P  4  1  4.00      0.00000000000      1.50000000000     -0.47858937700
</PP_INFO>


<PP_HEADER>
   0                   Version Number
  Se                   Element
   US                  Ultrasoft pseudopotential
    T                  Nonlinear Core Correction
SLA  PW   PBE  PBE     PBE  Exchange-Correlation functional
    6.00000000000      Z valence
  -43.34577365200      Total energy
    0.00000    0.00000 Suggested cutoff for wfc and rho
    2                  Max angular momentum component
  877                  Number of points in mesh
    2    6             Number of Wavefunctions, Number of Projectors
 Wavefunctions         nl  l   occ
                       4S  0  2.00
                       4P  1  4.00
</PP_HEADER>


<PP_MESH>
  <PP_R>
  0.00000000000E+00  1.24620026706E-06  2.51370258847E-06  3.80287109312E-06
  5.11407613417E-06  6.44769439547E-06  7.80410899973E-06  9.18370961861E-06
  1.05868925847E-05  1.20140610053E-05  1.34656248782E-05  1.49420012098E-05
  1.64436141343E-05  1.79708950360E-05  1.95242826733E-05  2.11042233043E-05
  2.27111708154E-05  2.43455868515E-05  2.60079409488E-05  2.76987106693E-05
  2.94183817386E-05  3.11674481847E-05  3.29464124808E-05  3.47557856888E-05
  3.65960876065E-05  3.84678469172E-05  4.03716013411E-05  4.23078977899E-05
  4.42772925242E-05  4.62803513130E-05  4.83176495962E-05  5.03897726504E-05
  5.24973157562E-05  5.46408843702E-05  5.68210942980E-05  5.90385718718E-05
  6.12939541300E-05  6.35878890002E-05  6.59210354856E-05  6.82940638540E-05
  7.07076558305E-05  7.31625047934E-05  7.56593159733E-05  7.81988066558E-05
  8.07817063873E-05  8.34087571850E-05  8.60807137498E-05  8.87983436830E-05
  9.15624277071E-05  9.43737598901E-05  9.72331478731E-05  1.00141413103E-04
  1.03099391069E-04  1.06107931539E-04  1.09167898810E-04  1.12280171951E-04
  1.15445645058E-04  1.18665227510E-04  1.21939844230E-04  1.25270435954E-04
  1.28657959494E-04  1.32103388022E-04  1.35607711342E-04  1.39171936178E-04
  1.42797086464E-04  1.46484203635E-04  1.50234346928E-04  1.54048593686E-04
  1.57928039670E-04  1.61873799369E-04  1.65887006323E-04  1.69968813449E-04
  1.74120393371E-04  1.78342938758E-04  1.82637662665E-04  1.87005798884E-04
  1.91448602295E-04  1.95967349230E-04  2.00563337838E-04  2.05237888456E-04
  2.09992343994E-04  2.14828070313E-04  2.19746456625E-04  2.24748915887E-04
  2.29836885209E-04  2.35011826265E-04  2.40275225716E-04  2.45628595635E-04
  2.51073473942E-04  2.56611424845E-04  2.62244039289E-04  2.67972935417E-04
  2.73799759028E-04  2.79726184057E-04  2.85753913051E-04  2.91884677659E-04
  2.98120239133E-04  3.04462388827E-04  3.10912948719E-04  3.17473771931E-04
  3.24146743258E-04  3.30933779717E-04  3.37836831093E-04  3.44857880498E-04
  3.51998944944E-04  3.59262075920E-04  3.66649359984E-04  3.74162919359E-04
  3.81804912546E-04  3.89577534941E-04  3.97483019468E-04  4.05523637220E-04
  4.13701698111E-04  4.22019551540E-04  4.30479587064E-04  4.39084235089E-04
  4.47835967563E-04  4.56737298690E-04  4.65790785649E-04  4.74999029333E-04
  4.84364675091E-04  4.93890413493E-04  5.03578981099E-04  5.13433161246E-04
  5.23455784850E-04  5.33649731217E-04  5.44017928871E-04  5.54563356393E-04
  5.65289043281E-04  5.76198070818E-04  5.87293572956E-04  5.98578737218E-04
  6.10056805613E-04  6.21731075569E-04  6.33604900876E-04  6.45681692656E-04
  6.57964920337E-04  6.70458112653E-04  6.83164858655E-04  6.96088808747E-04
  7.09233675728E-04  7.22603235866E-04  7.36201329975E-04  7.50031864525E-04
  7.64098812762E-04  7.78406215847E-04  7.92958184019E-04  8.07758897779E-04
  8.22812609084E-04  8.38123642575E-04  8.53696396815E-04  8.69535345556E-04
  8.85645039020E-04  9.02030105210E-04  9.18695251241E-04  9.35645264684E-04
  9.52885014952E-04  9.70419454690E-04  9.88253621205E-04  1.00639263791E-03
  1.02484171578E-03  1.04360615490E-03  1.06269134591E-03  1.08210277163E-03
  1.10184600858E-03  1.12192672861E-03  1.14235070053E-03  1.16312379174E-03
  1.18425196996E-03  1.20574130489E-03  1.22759797002E-03  1.24982824433E-03
  1.27243851416E-03  1.29543527499E-03  1.31882513336E-03  1.34261480871E-03
  1.36681113536E-03  1.39142106445E-03  1.41645166592E-03  1.44191013060E-03
  1.46780377220E-03  1.49414002947E-03  1.52092646830E-03  1.54817078391E-03
  1.57588080308E-03  1.60406448636E-03  1.63272993037E-03  1.66188537013E-03
  1.69153918145E-03  1.72169988329E-03  1.75237614024E-03  1.78357676498E-03
  1.81531072086E-03  1.84758712443E-03  1.88041524807E-03  1.91380452267E-03
  1.94776454032E-03  1.98230505708E-03  2.01743599576E-03  2.05316744882E-03
  2.08950968119E-03  2.12647313331E-03  2.16406842406E-03  2.20230635383E-03
  2.24119790765E-03  2.28075425830E-03  2.32098676956E-03  2.36190699945E-03
  2.40352670357E-03  2.44585783844E-03  2.48891256498E-03  2.53270325199E-03
  2.57724247967E-03  2.62254304329E-03  2.66861795683E-03  2.71548045671E-03
  2.76314400562E-03  2.81162229638E-03  2.86092925587E-03  2.91107904901E-03
  2.96208608288E-03  3.01396501081E-03  3.06673073660E-03  3.12039841884E-03
  3.17498347521E-03  3.23050158693E-03  3.28696870330E-03  3.34440104621E-03
  3.40281511487E-03  3.46222769051E-03  3.52265584122E-03  3.58411692682E-03
  3.64662860391E-03  3.71020883088E-03  3.77487587309E-03  3.84064830814E-03
  3.90754503117E-03  3.97558526033E-03  4.04478854224E-03  4.11517475767E-03
  4.18676412723E-03  4.25957721715E-03  4.33363494522E-03  4.40895858679E-03
  4.48556978090E-03  4.56349053645E-03  4.64274323857E-03  4.72335065502E-03
  4.80533594276E-03  4.88872265458E-03  4.97353474586E-03  5.05979658147E-03
  5.14753294278E-03  5.23676903474E-03  5.32753049315E-03  5.41984339202E-03
  5.51373425107E-03  5.60923004332E-03  5.70635820286E-03  5.80514663273E-03
  5.90562371294E-03  6.00781830861E-03  6.11175977827E-03  6.21747798230E-03
  6.32500329147E-03  6.43436659575E-03  6.54559931308E-03  6.65873339848E-03
  6.77380135317E-03  6.89083623396E-03  7.00987166270E-03  7.13094183597E-03
  7.25408153489E-03  7.37932613510E-03  7.50671161696E-03  7.63627457585E-03
  7.76805223270E-03  7.90208244469E-03  8.03840371609E-03  8.17705520938E-03
  8.31807675644E-03  8.46150887004E-03  8.60739275544E-03  8.75577032227E-03
  8.90668419653E-03  9.06017773284E-03  9.21629502695E-03  9.37508092831E-03
  9.53658105306E-03  9.70084179705E-03  9.86791034921E-03  1.00378347051E-02
  1.02106636807E-02  1.03864469265E-02  1.05652349415E-02  1.07470790881E-02
  1.09320316066E-02  1.11201456303E-02  1.13114752007E-02  1.15060752830E-02
  1.17040017822E-02  1.19053115587E-02  1.21100624449E-02  1.23183132617E-02
  1.25301238355E-02  1.27455550156E-02  1.29646686909E-02  1.31875278088E-02
  1.34141963923E-02  1.36447395588E-02  1.38792235391E-02  1.41177156957E-02
  1.43602845429E-02  1.46069997660E-02  1.48579322416E-02  1.51131540576E-02
  1.53727385343E-02  1.56367602455E-02  1.59052950392E-02  1.61784200606E-02
  1.64562137729E-02  1.67387559811E-02  1.70261278541E-02  1.73184119481E-02
  1.76156922308E-02  1.79180541051E-02  1.82255844336E-02  1.85383715639E-02
  1.88565053536E-02  1.91800771965E-02  1.95091800485E-02  1.98439084544E-02
  2.01843585753E-02  2.05306282158E-02  2.08828168526E-02  2.12410256626E-02
  2.16053575523E-02  2.19759171872E-02  2.23528110219E-02  2.27361473307E-02
  2.31260362387E-02  2.35225897535E-02  2.39259217971E-02  2.43361482392E-02
  2.47533869298E-02  2.51777577334E-02  2.56093825637E-02  2.60483854181E-02
  2.64948924136E-02  2.69490318231E-02  2.74109341119E-02  2.78807319758E-02
  2.83585603784E-02  2.88445565908E-02  2.93388602301E-02  2.98416133003E-02
  3.03529602326E-02  3.08730479270E-02  3.14020257947E-02  3.19400458009E-02
  3.24872625081E-02  3.30438331213E-02  3.36099175324E-02  3.41856783664E-02
  3.47712810283E-02  3.53668937505E-02  3.59726876409E-02  3.65888367325E-02
  3.72155180328E-02  3.78529115753E-02  3.85012004710E-02  3.91605709605E-02
  3.98312124683E-02  4.05133176567E-02  4.12070824814E-02  4.19127062475E-02
  4.26303916671E-02  4.33603449174E-02  4.41027756998E-02  4.48578973002E-02
  4.56259266505E-02  4.64070843907E-02  4.72015949323E-02  4.80096865227E-02
  4.88315913111E-02  4.96675454148E-02  5.05177889872E-02  5.13825662869E-02
  5.22621257477E-02  5.31567200499E-02  5.40666061931E-02  5.49920455702E-02
  5.59333040418E-02  5.68906520134E-02  5.78643645125E-02  5.88547212678E-02
  5.98620067897E-02  6.08865104518E-02  6.19285265742E-02  6.29883545080E-02
  6.40662987212E-02  6.51626688863E-02  6.62777799692E-02  6.74119523199E-02
  6.85655117641E-02  6.97387896970E-02  7.09321231787E-02  7.21458550309E-02
  7.33803339352E-02  7.46359145335E-02  7.59129575298E-02  7.72118297939E-02
  7.85329044666E-02  7.98765610671E-02  8.12431856020E-02  8.26331706761E-02
  8.40469156051E-02  8.54848265306E-02  8.69473165366E-02  8.84348057682E-02
  8.99477215523E-02  9.14864985202E-02  9.30515787329E-02  9.46434118076E-02
  9.62624550470E-02  9.79091735712E-02  9.95840404502E-02  1.01287536841E-01
  1.03020152125E-01  1.04782384050E-01  1.06574738870E-01  1.08397731494E-01
  1.10251885633E-01  1.12137733949E-01  1.14055818210E-01  1.16006689445E-01
  1.17990908101E-01  1.20009044205E-01  1.22061677530E-01  1.24149397757E-01
  1.26272804647E-01  1.28432508215E-01  1.30629128901E-01  1.32863297752E-01
  1.35135656601E-01  1.37446858254E-01  1.39797566673E-01  1.42188457173E-01
  1.44620216608E-01  1.47093543577E-01  1.49609148619E-01  1.52167754419E-01
  1.54770096013E-01  1.57416921006E-01  1.60108989777E-01  1.62847075708E-01
  1.65631965395E-01  1.68464458886E-01  1.71345369900E-01  1.74275526066E-01
  1.77255769163E-01  1.80286955357E-01  1.83369955448E-01  1.86505655123E-01
  1.89694955208E-01  1.92938771927E-01  1.96238037165E-01  1.99593698738E-01
  2.03006720663E-01  2.06478083434E-01  2.10008784307E-01  2.13599837584E-01
  2.17252274905E-01  2.20967145544E-01  2.24745516713E-01  2.28588473863E-01
  2.32497121003E-01  2.36472581011E-01  2.40515995959E-01  2.44628527443E-01
  2.48811356913E-01  2.53065686015E-01  2.57392736936E-01  2.61793752753E-01
  2.66269997794E-01  2.70822757996E-01  2.75453341281E-01  2.80163077924E-01
  2.84953320942E-01  2.89825446479E-01  2.94780854202E-01  2.99820967705E-01
  3.04947234914E-01  3.10161128507E-01  3.15464146334E-01  3.20857811849E-01
  3.26343674550E-01  3.31923310417E-01  3.37598322372E-01  3.43370340736E-01
  3.49241023699E-01  3.55212057794E-01  3.61285158384E-01  3.67462070152E-01
  3.73744567606E-01  3.80134455587E-01  3.86633569785E-01  3.93243777269E-01
  3.99966977026E-01  4.06805100499E-01  4.13760112149E-01  4.20834010018E-01
  4.28028826297E-01  4.35346627920E-01  4.42789517149E-01  4.50359632182E-01
  4.58059147767E-01  4.65890275824E-01  4.73855266087E-01  4.81956406742E-01
  4.90196025091E-01  4.98576488216E-01  5.07100203662E-01  5.15769620128E-01
  5.24587228169E-01  5.33555560914E-01  5.42677194791E-01  5.51954750268E-01
  5.61390892609E-01  5.70988332634E-01  5.80749827501E-01  5.90678181500E-01
  6.00776246855E-01  6.11046924544E-01  6.21493165134E-01  6.32117969628E-01
  6.42924390326E-01  6.53915531705E-01  6.65094551306E-01  6.76464660646E-01
  6.88029126137E-01  6.99791270026E-01  7.11754471349E-01  7.23922166903E-01
  7.36297852231E-01  7.48885082628E-01  7.61687474161E-01  7.74708704711E-01
  7.87952515024E-01  8.01422709792E-01  8.15123158739E-01  8.29057797741E-01
  8.43230629950E-01  8.57645726945E-01  8.72307229905E-01  8.87219350797E-01
  9.02386373584E-01  9.17812655458E-01  9.33502628091E-01  9.49460798910E-01
  9.65691752387E-01  9.82200151362E-01  9.98990738378E-01  1.01606833705E+00
  1.03343785343E+00  1.05110427745E+00  1.06907268434E+00  1.08734823607E+00
  1.10593618285E+00  1.12484186463E+00  1.14407071266E+00  1.16362825102E+00
  1.18352009819E+00  1.20375196874E+00  1.22432967487E+00  1.24525912817E+00
  1.26654634127E+00  1.28819742956E+00  1.31021861299E+00  1.33261621782E+00
  1.35539667845E+00  1.37856653926E+00  1.40213245650E+00  1.42610120021E+00
  1.45047965614E+00  1.47527482776E+00  1.50049383822E+00  1.52614393248E+00
  1.55223247930E+00  1.57876697341E+00  1.60575503768E+00  1.63320442523E+00
  1.66112302176E+00  1.68951884773E+00  1.71840006072E+00  1.74777495773E+00
  1.77765197762E+00  1.80803970346E+00  1.83894686507E+00  1.87038234146E+00
  1.90235516346E+00  1.93487451623E+00  1.96794974195E+00  2.00159034249E+00
  2.03580598215E+00  2.07060649041E+00  2.10600186480E+00  2.14200227371E+00
  2.17861805938E+00  2.21585974079E+00  2.25373801678E+00  2.29226376903E+00
  2.33144806525E+00  2.37130216232E+00  2.41183750956E+00  2.45306575200E+00
  2.49499873370E+00  2.53764850120E+00  2.58102730695E+00  2.62514761284E+00
  2.67002209379E+00  2.71566364137E+00  2.76208536750E+00  2.80930060825E+00
  2.85732292765E+00  2.90616612158E+00  2.95584422175E+00  3.00637149970E+00
  3.05776247096E+00  3.11003189914E+00  3.16319480026E+00  3.21726644697E+00
  3.27226237302E+00  3.32819837767E+00  3.38509053026E+00  3.44295517480E+00
  3.50180893468E+00  3.56166871744E+00  3.62255171966E+00  3.68447543182E+00
  3.74745764342E+00  3.81151644804E+00  3.87667024851E+00  3.94293776228E+00
  4.01033802671E+00  4.07889040459E+00  4.14861458970E+00  4.21953061245E+00
  4.29165884564E+00  4.36502001031E+00  4.43963518170E+00  4.51552579532E+00
  4.59271365306E+00  4.67122092951E+00  4.75107017828E+00  4.83228433852E+00
  4.91488674148E+00  4.99890111725E+00  5.08435160151E+00  5.17126274255E+00
  5.25965950825E+00  5.34956729329E+00  5.44101192644E+00  5.53401967797E+00
  5.62861726722E+00  5.72483187022E+00  5.82269112759E+00  5.92222315239E+00
  6.02345653825E+00  6.12642036755E+00  6.23114421982E+00  6.33765818019E+00
  6.44599284806E+00  6.55617934588E+00  6.66824932811E+00  6.78223499027E+00
  6.89816907825E+00  7.01608489767E+00  7.13601632345E+00  7.25799780958E+00
  7.38206439897E+00  7.50825173356E+00  7.63659606453E+00  7.76713426272E+00
  7.89990382922E+00  8.03494290617E+00  8.17229028767E+00  8.31198543098E+00
  8.45406846781E+00  8.59858021585E+00  8.74556219055E+00  8.89505661697E+00
  9.04710644197E+00  9.20175534654E+00  9.35904775829E+00  9.51902886430E+00
  9.68174462405E+00  9.84724178263E+00  1.00155678842E+01  1.01867712855E+01
  1.03609011700E+01  1.05380075619E+01  1.07181413404E+01  1.09013542544E+01
  1.10876989375E+01  1.12772289229E+01  1.14699986589E+01  1.16660635245E+01
  1.18654798453E+01  1.20683049098E+01  1.22745969858E+01  1.24844153369E+01
  1.26978202398E+01  1.29148730018E+01  1.31356359778E+01  1.33601725887E+01
  1.35885473397E+01  1.38208258383E+01  1.40570748137E+01  1.42973621356E+01
  1.45417568339E+01  1.47903291185E+01  1.50431503994E+01  1.53002933073E+01
  1.55618317142E+01  1.58278407553E+01  1.60983968497E+01  1.63735777229E+01
  1.66534624291E+01  1.69381313737E+01  1.72276663366E+01  1.75221504957E+01
  1.78216684505E+01  1.81263062467E+01  1.84361514008E+01  1.87512929255E+01
  1.90718213547E+01  1.93978287701E+01  1.97294088272E+01  2.00666567827E+01
  2.04096695213E+01  2.07585455839E+01  2.11133851960E+01  2.14742902960E+01
  2.18413645650E+01  2.22147134563E+01  2.25944442259E+01  2.29806659630E+01
  2.33734896217E+01  2.37730280527E+01  2.41793960355E+01  2.45927103118E+01
  2.50130896188E+01  2.54406547235E+01  2.58755284569E+01  2.63178357498E+01
  2.67677036686E+01  2.72252614516E+01  2.76906405464E+01  2.81639746473E+01
  2.86453997341E+01  2.91350541108E+01  2.96330784458E+01  3.01396158117E+01
  3.06548117269E+01  3.11788141973E+01  3.17117737587E+01  3.22538435199E+01
  3.28051792072E+01  3.33659392086E+01  3.39362846196E+01  3.45163792894E+01
  3.51063898680E+01  3.57064858541E+01  3.63168396435E+01  3.69376265791E+01
  3.75690250010E+01  3.82112162978E+01  3.88643849585E+01  3.95287186259E+01
  4.02044081502E+01  4.08916476439E+01  4.15906345377E+01  4.23015696368E+01
  4.30246571793E+01  4.37601048942E+01  4.45081240614E+01  4.52689295723E+01
  4.60427399916E+01  4.68297776201E+01  4.76302685584E+01  4.84444427721E+01
  4.92725341578E+01  5.01147806100E+01  5.09714240899E+01  5.18427106945E+01
  5.27288907276E+01  5.36302187717E+01  5.45469537607E+01  5.54793590550E+01
  5.64277025165E+01  5.73922565859E+01  5.83732983611E+01  5.93711096762E+01
  6.03859771832E+01  6.14181924338E+01  6.24680519636E+01  6.35358573769E+01
  6.46219154334E+01  6.57265381367E+01  6.68500428235E+01  6.79927522550E+01
  6.91549947094E+01  7.03371040765E+01  7.15394199534E+01  7.27622877424E+01
  7.40060587495E+01  7.52710902861E+01  7.65577457714E+01  7.78663948366E+01
  7.91974134311E+01  8.05511839309E+01  8.19280952481E+01  8.33285429426E+01
  8.47529293360E+01  8.62016636268E+01  8.76751620085E+01  8.91738477886E+01
  9.06981515105E+01  9.22485110772E+01  9.38253718770E+01  9.54291869115E+01
  9.70604169257E+01  9.87195305404E+01  1.00407004387E+02  1.02123323244E+02
  1.03868980176E+02  1.05644476677E+02  1.07450322814E+02  1.09287037369E+02
  1.11155147997E+02  1.13055191368E+02  1.14987713329E+02  1.16953269057E+02
  1.18952423216E+02  1.20985750125E+02  1.23053833921E+02  1.25157268722E+02
  1.27296658806E+02  1.29472618777E+02  1.31685773748E+02  1.33936759514E+02
  1.36226222740E+02  1.38554821145E+02  1.40923223689E+02  1.43332110770E+02
  1.45782174414E+02  1.48274118476E+02  1.50808658844E+02  1.53386523643E+02
  1.56008453442E+02  1.58675201473E+02  1.61387533839E+02  1.64146229741E+02
  1.66952081700E+02  1.69805895782E+02  1.72708491834E+02  1.75660703713E+02
  1.78663379535E+02  1.81717381909E+02  1.84823588192E+02  1.87982890736E+02
  1.91196197148E+02  1.94464430548E+02  1.97788529838E+02  2.01169449965E+02
  2.04608162204E+02
  </PP_R>
  <PP_RAB>
  1.23566908109E-06  1.25679111951E-06  1.27827420971E-06  1.30012452335E-06
  1.32234833760E-06  1.34495203695E-06  1.36794211498E-06  1.39132517632E-06
  1.41510793846E-06  1.43929723372E-06  1.46390001123E-06  1.48892333888E-06
  1.51437440540E-06  1.54026052238E-06  1.56658912640E-06  1.59336778116E-06
  1.62060417966E-06  1.64830614637E-06  1.67648163954E-06  1.70513875345E-06
  1.73428572073E-06  1.76393091473E-06  1.79408285195E-06  1.82475019446E-06
  1.85594175239E-06  1.88766648647E-06  1.91993351060E-06  1.95275209448E-06
  1.98613166625E-06  2.02008181521E-06  2.05461229459E-06  2.08973302432E-06
  2.12545409391E-06  2.16178576533E-06  2.19873847597E-06  2.23632284163E-06
  2.27454965956E-06  2.31342991160E-06  2.35297476729E-06  2.39319558709E-06
  2.43410392567E-06  2.47571153522E-06  2.51803036877E-06  2.56107258373E-06
  2.60485054528E-06  2.64937682999E-06  2.69466422939E-06  2.74072575368E-06
  2.78757463545E-06  2.83522433346E-06  2.88368853657E-06  2.93298116758E-06
  2.98311638734E-06  3.03410859870E-06  3.08597245075E-06  3.13872284297E-06
  3.19237492953E-06  3.24694412363E-06  3.30244610194E-06  3.35889680912E-06
  3.41631246235E-06  3.47470955604E-06  3.53410486655E-06  3.59451545699E-06
  3.65595868218E-06  3.71845219354E-06  3.78201394427E-06  3.84666219442E-06
  3.91241551618E-06  3.97929279921E-06  4.04731325605E-06  4.11649642768E-06
  4.18686218907E-06  4.25843075495E-06  4.33122268559E-06  4.40525889268E-06
  4.48056064541E-06  4.55714957652E-06  4.63504768851E-06  4.71427736001E-06
  4.79486135217E-06  4.87682281521E-06  4.96018529507E-06  5.04497274019E-06
  5.13120950835E-06  5.21892037371E-06  5.30813053391E-06  5.39886561728E-06
  5.49115169028E-06  5.58501526490E-06  5.68048330633E-06  5.77758324069E-06
  5.87634296292E-06  5.97679084477E-06  6.07895574297E-06  6.18286700752E-06
  6.28855449012E-06  6.39604855274E-06  6.50538007633E-06  6.61658046974E-06
  6.72968167868E-06  6.84471619495E-06  6.96171706572E-06  7.08071790309E-06
  7.20175289370E-06  7.32485680855E-06  7.45006501302E-06  7.57741347701E-06
  7.70693878526E-06  7.83867814789E-06  7.97266941106E-06  8.10895106787E-06
  8.24756226942E-06  8.38854283600E-06  8.53193326862E-06  8.67777476057E-06
  8.82610920928E-06  8.97697922837E-06  9.13042815989E-06  9.28650008673E-06
  9.44523984535E-06  9.60669303860E-06  9.77090604886E-06  9.93792605136E-06
  1.01078010277E-05  1.02805797797E-05  1.04563119433E-05  1.06350480030E-05
  1.08168393062E-05  1.10017380780E-05  1.11897974363E-05  1.13810714068E-05
  1.15756149389E-05  1.17734839212E-05  1.19747351976E-05  1.21794265837E-05
  1.23876168834E-05  1.25993659057E-05  1.28147344820E-05  1.30337844836E-05
  1.32565788392E-05  1.34831815534E-05  1.37136577247E-05  1.39480735646E-05
  1.41864964160E-05  1.44289947734E-05  1.46756383018E-05  1.49264978570E-05
  1.51816455062E-05  1.54411545485E-05  1.57050995356E-05  1.59735562939E-05
  1.62466019458E-05  1.65243149321E-05  1.68067750343E-05  1.70940633978E-05
  1.73862625548E-05  1.76834564487E-05  1.79857304574E-05  1.82931714185E-05
  1.86058676537E-05  1.89239089946E-05  1.92473868084E-05  1.95763940240E-05
  1.99110251588E-05  2.02513763457E-05  2.05975453613E-05  2.09496316530E-05
  2.13077363685E-05  2.16719623844E-05  2.20424143357E-05  2.24191986460E-05
  2.28024235584E-05  2.31921991657E-05  2.35886374431E-05  2.39918522796E-05
  2.44019595109E-05  2.48190769531E-05  2.52433244357E-05  2.56748238370E-05
  2.61136991184E-05  2.65600763602E-05  2.70140837980E-05  2.74758518593E-05
  2.79455132011E-05  2.84232027482E-05  2.89090577314E-05  2.94032177274E-05
  2.99058246989E-05  3.04170230352E-05  3.09369595936E-05  3.14657837418E-05
  3.20036474008E-05  3.25507050883E-05  3.31071139636E-05  3.36730338721E-05
  3.42486273916E-05  3.48340598790E-05  3.54294995178E-05  3.60351173661E-05
  3.66510874064E-05  3.72775865949E-05  3.79147949126E-05  3.85628954172E-05
  3.92220742955E-05  3.98925209167E-05  4.05744278872E-05  4.12679911057E-05
  4.19734098195E-05  4.26908866817E-05  4.34206278096E-05  4.41628428436E-05
  4.49177450077E-05  4.56855511708E-05  4.64664819087E-05  4.72607615677E-05
  4.80686183289E-05  4.88902842740E-05  4.97259954517E-05  5.05759919457E-05
  5.14405179435E-05  5.23198218066E-05  5.32141561422E-05  5.41237778750E-05
  5.50489483219E-05  5.59899332664E-05  5.69470030353E-05  5.79204325762E-05
  5.89105015365E-05  5.99174943440E-05  6.09417002881E-05  6.19834136035E-05
  6.30429335542E-05  6.41205645197E-05  6.52166160826E-05  6.63314031174E-05
  6.74652458807E-05  6.86184701036E-05  6.97914070851E-05  7.09843937874E-05
  7.21977729324E-05  7.34318931005E-05  7.46871088305E-05  7.59637807216E-05
  7.72622755370E-05  7.85829663090E-05  7.99262324466E-05  8.12924598442E-05
  8.26820409923E-05  8.40953750909E-05  8.55328681635E-05  8.69949331739E-05
  8.84819901452E-05  8.99944662801E-05  9.15327960836E-05  9.30974214882E-05
  9.46887919806E-05  9.63073647305E-05  9.79536047227E-05  9.96279848901E-05
  1.01330986250E-04  1.03063098041E-04  1.04824817865E-04  1.06616651832E-04
  1.08439114699E-04  1.10292730026E-04  1.12178030320E-04  1.14095557191E-04
  1.16045861508E-04  1.18029503555E-04  1.20047053195E-04  1.22099090030E-04
  1.24186203571E-04  1.26308993405E-04  1.28468069369E-04  1.30664051723E-04
  1.32897571330E-04  1.35169269838E-04  1.37479799862E-04  1.39829825172E-04
  1.42220020885E-04  1.44651073658E-04  1.47123681885E-04  1.49638555899E-04
  1.52196418175E-04  1.54798003536E-04  1.57444059368E-04  1.60135345832E-04
  1.62872636082E-04  1.65656716489E-04  1.68488386864E-04  1.71368460693E-04
  1.74297765364E-04  1.77277142411E-04  1.80307447750E-04  1.83389551930E-04
  1.86524340379E-04  1.89712713662E-04  1.92955587737E-04  1.96253894217E-04
  1.99608580645E-04  2.03020610754E-04  2.06490964757E-04  2.10020639618E-04
  2.13610649344E-04  2.17262025277E-04  2.20975816385E-04  2.24753089569E-04
  2.28594929967E-04  2.32502441265E-04  2.36476746015E-04  2.40518985958E-04
  2.44630322351E-04  2.48811936302E-04  2.53065029108E-04  2.57390822600E-04
  2.61790559494E-04  2.66265503750E-04  2.70816940933E-04  2.75446178582E-04
  2.80154546589E-04  2.84943397575E-04  2.89814107286E-04  2.94768074981E-04
  2.99806723841E-04  3.04931501370E-04  3.10143879820E-04  3.15445356604E-04
  3.20837454736E-04  3.26321723259E-04  3.31899737699E-04  3.37573100512E-04
  3.43343441543E-04  3.49212418502E-04  3.55181717430E-04  3.61253053193E-04
  3.67428169968E-04  3.73708841746E-04  3.80096872842E-04  3.86594098415E-04
  3.93202384992E-04  3.99923631005E-04  4.06759767338E-04  4.13712757881E-04
  4.20784600094E-04  4.27977325580E-04  4.35293000670E-04  4.42733727015E-04
  4.50301642193E-04  4.57998920320E-04  4.65827772673E-04  4.73790448331E-04
  4.81889234817E-04  4.90126458755E-04  4.98504486540E-04  5.07025725018E-04
  5.15692622175E-04  5.24507667844E-04  5.33473394416E-04  5.42592377570E-04
  5.51867237016E-04  5.61300637239E-04  5.70895288274E-04  5.80653946478E-04
  5.90579415324E-04  6.00674546209E-04  6.10942239267E-04  6.21385444207E-04
  6.32007161162E-04  6.42810441545E-04  6.53798388928E-04  6.64974159937E-04
  6.76340965154E-04  6.87902070042E-04  6.99660795884E-04  7.11620520734E-04
  7.23784680389E-04  7.36156769376E-04  7.48740341958E-04  7.61539013152E-04
  7.74556459768E-04  7.87796421466E-04  8.01262701831E-04  8.14959169466E-04
  8.28889759100E-04  8.43058472722E-04  8.57469380729E-04  8.72126623097E-04
  8.87034410567E-04  9.02197025859E-04  9.17618824897E-04  9.33304238068E-04
  9.49257771485E-04  9.65484008292E-04  9.81987609971E-04  9.98773317688E-04
  1.01584595365E-03  1.03321042250E-03  1.05087171271E-03  1.06883489803E-03
  1.08710513893E-03  1.10568768410E-03  1.12458787195E-03  1.14381113213E-03
  1.16336298712E-03  1.18324905378E-03  1.20347504499E-03  1.22404677130E-03
  1.24497014256E-03  1.26625116965E-03  1.28789596620E-03  1.30991075033E-03
  1.33230184648E-03  1.35507568717E-03  1.37823881488E-03  1.40179788393E-03
  1.42575966239E-03  1.45013103401E-03  1.47491900021E-03  1.50013068210E-03
  1.52577332251E-03  1.55185428807E-03  1.57838107133E-03  1.60536129294E-03
  1.63280270378E-03  1.66071318724E-03  1.68910076146E-03  1.71797358164E-03
  1.74733994239E-03  1.77720828010E-03  1.80758717535E-03  1.83848535542E-03
  1.86991169676E-03  1.90187522754E-03  1.93438513027E-03  1.96745074442E-03
  2.00108156909E-03  2.03528726578E-03  2.07007766111E-03  2.10546274970E-03
  2.14145269700E-03  2.17805784221E-03  2.21528870130E-03  2.25315596996E-03
  2.29167052673E-03  2.33084343610E-03  2.37068595168E-03  2.41120951946E-03
  2.45242578108E-03  2.49434657717E-03  2.53698395076E-03  2.58035015075E-03
  2.62445763541E-03  2.66931907596E-03  2.71494736022E-03  2.76135559633E-03
  2.80855711646E-03  2.85656548071E-03  2.90539448094E-03  2.95505814478E-03
  3.00557073965E-03  3.05694677683E-03  3.10920101566E-03  3.16234846778E-03
  3.21640440142E-03  3.27138434580E-03  3.32730409561E-03  3.38417971549E-03
  3.44202754472E-03  3.50086420186E-03  3.56070658953E-03  3.62157189931E-03
  3.68347761662E-03  3.74644152576E-03  3.81048171506E-03  3.87561658202E-03
  3.94186483862E-03  4.00924551672E-03  4.07777797347E-03  4.14748189693E-03
  4.21837731167E-03  4.29048458459E-03  4.36382443070E-03  4.43841791914E-03
  4.51428647915E-03  4.59145190631E-03  4.66993636875E-03  4.74976241355E-03
  4.83095297318E-03  4.91353137211E-03  4.99752133353E-03  5.08294698611E-03
  5.16983287101E-03  5.25820394885E-03  5.34808560694E-03  5.43950366653E-03
  5.53248439026E-03  5.62705448970E-03  5.72324113301E-03  5.82107195275E-03
  5.92057505381E-03  6.02177902152E-03  6.12471292982E-03  6.22940634962E-03
  6.33588935732E-03  6.44419254343E-03  6.55434702136E-03  6.66638443636E-03
  6.78033697460E-03  6.89623737245E-03  7.01411892585E-03  7.13401549989E-03
  7.25596153853E-03  7.37999207451E-03  7.50614273941E-03  7.63444977387E-03
  7.76495003801E-03  7.89768102204E-03  8.03268085700E-03  8.16998832573E-03
  8.30964287401E-03  8.45168462189E-03  8.59615437522E-03  8.74309363735E-03
  8.89254462110E-03  9.04455026085E-03  9.19915422486E-03  9.35640092787E-03
  9.51633554381E-03  9.67900401880E-03  9.84445308436E-03  1.00127302708E-02
  1.01838839209E-02  1.03579632037E-02  1.05350181290E-02  1.07150995611E-02
  1.08982592339E-02  1.10845497658E-02  1.12740246743E-02  1.14667383919E-02
  1.16627462816E-02  1.18621046526E-02  1.20648707767E-02  1.22711029047E-02
  1.24808602832E-02  1.26942031712E-02  1.29111928583E-02  1.31318916811E-02
  1.33563630424E-02  1.35846714283E-02  1.38168824274E-02  1.40530627494E-02
  1.42932802445E-02  1.45376039224E-02  1.47861039726E-02  1.50388517843E-02
  1.52959199671E-02  1.55573823718E-02  1.58233141113E-02  1.60937915828E-02
  1.63688924892E-02  1.66486958617E-02  1.69332820823E-02  1.72227329071E-02
  1.75171314899E-02  1.78165624056E-02  1.81211116749E-02  1.84308667889E-02
  1.87459167343E-02  1.90663520188E-02  1.93922646973E-02  1.97237483982E-02
  2.00608983503E-02  2.04038114104E-02  2.07525860906E-02  2.11073225872E-02
  2.14681228092E-02  2.18350904074E-02  2.22083308046E-02  2.25879512254E-02
  2.29740607276E-02  2.33667702328E-02  2.37661925589E-02  2.41724424523E-02
  2.45856366206E-02  2.50058937666E-02  2.54333346220E-02  2.58680819823E-02
  2.63102607419E-02  2.67599979303E-02  2.72174227483E-02  2.76826666052E-02
  2.81558631565E-02  2.86371483425E-02  2.91266604270E-02  2.96245400374E-02
  3.01309302050E-02  3.06459764057E-02  3.11698266024E-02  3.17026312871E-02
  3.22445435244E-02  3.27957189950E-02  3.33563160411E-02  3.39264957113E-02
  3.45064218072E-02  3.50962609303E-02  3.56961825301E-02  3.63063589524E-02
  3.69269654890E-02  3.75581804283E-02  3.82001851060E-02  3.88531639577E-02