
     Program MATDYN v.7.0 starts on  6Feb2022 at  7:47:41 

     This program is part of the open-source Quantum ESPRESSO suite
     for quantum simulation of materials; please cite
         "P. Giannozzi et al., J. Phys.:Condens. Matter 21 395502 (2009);
         "P. Giannozzi et al., J. Phys.:Condens. Matter 29 465901 (2017);
         "P. Giannozzi et al., J. Chem. Phys. 152 154105 (2020);
          URL http://www.quantum-espresso.org", 
     in publications or presentations arising from this work. More details at
     http://www.quantum-espresso.org/quote

     Parallel version (MPI), running on     4 processors

     MPI processes distributed on     1 nodes
     R & G space division:  proc/nbgrp/npool/nimage =       4
     19545 MiB available memory on the printing compute node when the environment starts
 
 mass for atomic type   1 not given; uses mass from file gr.fc                                                                                                                                                                                                                                                           
     Message from routine matdyn:
     Z* not found in file gr.fc, TO-LO splitting at q=0 will be absent!
     Message from routine matdyn:
     Z* not found in file gr.fc, TO-LO splitting at q=0 will be absent!
 
  Gamma lines for all modes [Rydberg] 
 
 Broadening   0.0200
       1
 0.000000000-0.000000000 0.000000000-0.000000000 0.000097764 0.000097764
       2
-0.000000000-0.000000022-0.000000044-0.000000000 0.000096334 0.000096356
       3
-0.000000000-0.000000085-0.000000167-0.000000000 0.000092139 0.000092217
       4
-0.000000000-0.000000185-0.000000345-0.000000000 0.000085448 0.000085587
       5
-0.000000000-0.000000314-0.000000541-0.000000000 0.000076683 0.000076850
       6
-0.000000000-0.000000459-0.000000708-0.000000000 0.000066387 0.000066502
       7
-0.000000000-0.000000606-0.000000798-0.000000000 0.000055174 0.000055115
       8
-0.000000000-0.000000741-0.000000766-0.000000000 0.000043684 0.000043299
       9
-0.000000000-0.000000849-0.000000582-0.000000000 0.000032533 0.000031656
      10
-0.000000000-0.000000919-0.000000237-0.000000000 0.000022269 0.000020745
      11
-0.000000000-0.000000942 0.000000254-0.000000000 0.000013335 0.000011043
      12
-0.000000000-0.000000916 0.000000848-0.000000000 0.000006039 0.000002918
      13
-0.000000000-0.000000845 0.000001477-0.000000000 0.000000545-0.000003391
      14
-0.000000000-0.000000737 0.000002056-0.000000000-0.000003137-0.000007780
      15
-0.000000000-0.000000605 0.000002498-0.000000000-0.000005138-0.000010281
      16
-0.000000000-0.000000462 0.000002722-0.000000000-0.000005707-0.000011052
      17
-0.000000000-0.000000324 0.000002672-0.000000000-0.000005188-0.000010352
      18
-0.000000000-0.000000204 0.000002329-0.000000000-0.000003976-0.000008516
      19
-0.000000000-0.000000110 0.000001716-0.000000000-0.000002474-0.000005923
      20
-0.000000000-0.000000046 0.000000901-0.000000000-0.000001056-0.000002965
      21
-0.000000000-0.000000010-0.000000000-0.000000010-0.000000010-0.000000010
      22
-0.000000000 0.000000002-0.000000000-0.000000897 0.000000488 0.000002621
      23
-0.000000000 0.000000000-0.000000000-0.000001638 0.000000413 0.000004682
      24
-0.000000000-0.000000002-0.000000000-0.000002138-0.000000106 0.000006011
      25
-0.000000000 0.000000007-0.000000000-0.000002333-0.000000796 0.000006539
      26
-0.000000000 0.000000039-0.000000000-0.000002201-0.000001278 0.000006288
      27
-0.000000000-0.000000000 0.000000103-0.000001746-0.000001118 0.000005358
      28
-0.000000000-0.000000000 0.000000203-0.000000991 0.000000105 0.000003910
      29
-0.000000000-0.000000000 0.000000341 0.000000032 0.000002739 0.000002146
      30
-0.000000000-0.000000000 0.000000511 0.000001292 0.000007012 0.000000285
      31
-0.000000000-0.000000000 0.000000703 0.000002750 0.000012999-0.000001460
      32
-0.000000000-0.000000000 0.000000899 0.000004361 0.000020608-0.000002901
      33
-0.000000000-0.000000000 0.000001077 0.000006066 0.000029583-0.000003896
      34
-0.000000000-0.000000000 0.000001211 0.000007789 0.000039521-0.000004353
      35
-0.000000000-0.000000000 0.000001272 0.000009443 0.000049906-0.000004238
      36
-0.000000000-0.000000000 0.000001235 0.000010931 0.000060144-0.000003581
      37
-0.000000000-0.000000000 0.000001080 0.000012156 0.000069612-0.000002463
      38
-0.000000000-0.000000000 0.000000811 0.000013023 0.000077717-0.000001021
      39
-0.000000000-0.000000000 0.000000464 0.000013409 0.000083983 0.000000554
      40
-0.000000000-0.000000000 0.000000137 0.000012894 0.000088373 0.000002013
      41
-0.000000000-0.000000000-0.000000010 0.000003062 0.000003062 0.000099025
      42
-0.000000000-0.000000000 0.000000168 0.000003451 0.000081702 0.000018080
      43
-0.000000000-0.000000000 0.000000659 0.000003130 0.000077312 0.000017181
      44
-0.000000000-0.000000000 0.000001255 0.000002292 0.000068714 0.000017851
      45
-0.000000000-0.000000000 0.000001716 0.000001208 0.000056833 0.000019681
      46
-0.000000000-0.000000000 0.000001904 0.000000086 0.000042506 0.000022480
      47
-0.000000000-0.000000000 0.000001795-0.000000946 0.000027692 0.000025009
      48
-0.000000000-0.000000000 0.000001441-0.000001818 0.000015405 0.000024986
      49
-0.000000000-0.000000000 0.000000928-0.000002490 0.000007489 0.000021257
      50
-0.000000000-0.000000000 0.000000351-0.000002939 0.000003457 0.000014898
      51
-0.000000000-0.000000000-0.000000200-0.000003161 0.000001947 0.000007710
      52
-0.000000000-0.000000000-0.000000653-0.000003167 0.000001864 0.000001058
      53
-0.000000000-0.000000000-0.000000961-0.000002981 0.000002492-0.000004263
      54
-0.000000000-0.000000000-0.000001103-0.000002638 0.000003347-0.000007866
      55
-0.000000000-0.000000000-0.000001087-0.000002185 0.000004068-0.000009651
      56
-0.000000000-0.000000000-0.000000941-0.000001674 0.000004381-0.000009724
      57
-0.000000000-0.000000000-0.000000713-0.000001160 0.000004105-0.000008359
      58
-0.000000000-0.000000000-0.000000456-0.000000696 0.000003200-0.000005987
      59
-0.000000000-0.000000000-0.000000226-0.000000328 0.000001849-0.000003227
      60
-0.000000000-0.000000067-0.000000000-0.000000092 0.000000546-0.000000926
      61
-0.000000000-0.000000010-0.000000000-0.000000010-0.000000010-0.000000010
      62
-0.000000000 0.000000000-0.000000000 0.000000011-0.000000011 0.000000000
      63
-0.000000000 0.000000028-0.000000000 0.000000016 0.000000051 0.000000040
      64
-0.000000000 0.000000061-0.000000000-0.000000022 0.000000127 0.000000210
      65
-0.000000000 0.000000086-0.000000000-0.000000107 0.000000280 0.000000472
      66
-0.000000000 0.000000093-0.000000000-0.000000222 0.000000495 0.000000809
      67
-0.000000000 0.000000076-0.000000000-0.000000334 0.000000737 0.000001147
      68
-0.000000000 0.000000042-0.000000000-0.000000401 0.000000929 0.000001372
      69
-0.000000000 0.000000004-0.000000000-0.000000383 0.000000957 0.000001344
      70
-0.000000000-0.000000020-0.000000000-0.000000255 0.000000686 0.000000921
      71
-0.000000000-0.000000010-0.000000000-0.000000010-0.000000010-0.000000010
      72
-0.000000000 0.000000045-0.000000000 0.000000328-0.000001215-0.000001498
      73
-0.000000000 0.000000148-0.000000000 0.000000716-0.000002926-0.000003495
      74
-0.000000000 0.000000283-0.000000000 0.000001090-0.000005032-0.000005839
      75
-0.000000000 0.000000423-0.000000000 0.000001382-0.000007290-0.000008249
      76
-0.000000000 0.000000531 0.000001534-0.000000000-0.000009333-0.000010335
      77
-0.000000000 0.000000576 0.000001510-0.000000000-0.000010701-0.000011635
      78
-0.000000000 0.000000536 0.000001304-0.000000000-0.000010890-0.000011658
      79
-0.000000000 0.000000410 0.000000943-0.000000000-0.000009413-0.000009947
      80
-0.000000000 0.000000216 0.000000481-0.000000000-0.000005870-0.000006135
      81
-0.000000000-0.000000010-0.000000010-0.000000000-0.000000010-0.000000010
      82
-0.000000000-0.000000229-0.000000458-0.000000000 0.000008213 0.000008442
      83
-0.000000000-0.000000401-0.000000798-0.000000000 0.000018612 0.000019009
      84
-0.000000000-0.000000499-0.000000990-0.000000000 0.000030757 0.000031247
      85
-0.000000000-0.000000516-0.000001022-0.000000000 0.000043996 0.000044502
      86
-0.000000000-0.000000459-0.000000913-0.000000000 0.000057503 0.000057956
      87
-0.000000000-0.000000353-0.000000704-0.000000000 0.000070344 0.000070696
      88
-0.000000000-0.000000226-0.000000453-0.000000000 0.000081571 0.000081799
      89
-0.000000000-0.000000109-0.000000221-0.000000000 0.000090311 0.000090423
      90
-0.000000000-0.000000029-0.000000058-0.000000000 0.000095861 0.000095890
      91
 0.000000000-0.000000000 0.000000000-0.000000000 0.000097764 0.000097764
 Broadening   0.0400
       1
-0.000000000-0.000000000 0.000000000-0.000000000 0.000064962 0.000064962
       2
-0.000000000-0.000000017-0.000000031-0.000000000 0.000064011 0.000064025
       3
-0.000000000-0.000000066-0.000000119-0.000000000 0.000061219 0.000061269
       4
-0.000000000-0.000000143-0.000000247-0.000000000 0.000056765 0.000056855
       5
-0.000000000-0.000000243-0.000000390-0.000000000 0.000050929 0.000051037
       6
-0.000000000-0.000000356-0.000000517-0.000000000 0.000044073 0.000044147
       7
-0.000000000-0.000000472-0.000000595-0.000000000 0.000036604 0.000036566
       8
-0.000000000-0.000000581-0.000000595-0.000000000 0.000028947 0.000028698
       9
-0.000000000-0.000000671-0.000000495-0.000000000 0.000021513 0.000020946
      10
-0.000000000-0.000000734-0.000000289-0.000000000 0.000014667 0.000013681
      11
-0.000000000-0.000000765 0.000000015-0.000000000 0.000008704 0.000007221
      12
-0.000000000-0.000000760 0.000000389-0.000000000 0.000003830 0.000001810
      13
-0.000000000-0.000000723 0.000000789-0.000000000 0.000000155-0.000002392
      14
-0.000000000-0.000000658 0.000001160-0.000000000-0.000002312-0.000005316
      15
-0.000000000-0.000000575 0.000001445-0.000000000-0.000003656-0.000006984
      16
-0.000000000-0.000000483 0.000001590-0.000000000-0.000004042-0.000007502
      17
-0.000000000-0.000000392 0.000001558-0.000000000-0.000003697-0.000007040
      18
-0.000000000-0.000000312 0.000001337-0.000000000-0.000002883-0.000005823
      19
-0.000000000-0.000000248 0.000000940-0.000000000-0.000001869-0.000004103
      20
-0.000000000-0.000000204 0.000000412-0.000000000-0.000000900-0.000002140
      21
-0.000000000-0.000000179-0.000000000-0.000000180-0.000000174-0.000000179
      22
-0.000000000-0.000000170-0.000000000-0.000000756 0.000000194 0.000001567
      23
-0.000000000-0.000000170-0.000000000-0.000001239 0.000000181 0.000002936
      24
-0.000000000-0.000000171-0.000000000-0.000001563-0.000000132 0.000003819
      25
-0.000000000-0.000000165-0.000000000-0.000001690-0.000000567 0.000004173
      26
-0.000000000-0.000000142-0.000000000-0.000001601-0.000000880 0.000004012
      27
-0.000000000-0.000000000-0.000000099-0.000001300-0.000000786 0.000003403
      28
-0.000000000-0.000000000-0.000000030-0.000000800-0.000000012 0.000002454
      29
-0.000000000-0.000000000 0.000000065-0.000000121 0.000001673 0.000001300
      30
-0.000000000-0.000000000 0.000000181 0.000000717 0.000004418 0.000000086
      31
-0.000000000-0.000000000 0.000000313 0.000001690 0.000008276-0.000001047
      32
-0.000000000-0.000000000 0.000000448 0.000002767 0.000013188-0.000001975
      33
-0.000000000-0.000000000 0.000000571 0.000003909 0.000018991-0.000002602
      34
-0.000000000-0.000000000 0.000000664 0.000005067 0.000025424-0.000002870
      35
-0.000000000-0.000000000 0.000000707 0.000006181 0.000032153-0.000002759
      36
-0.000000000-0.000000000 0.000000681 0.000007185 0.000038792-0.000002286
      37
-0.000000000-0.000000000 0.000000574 0.000008015 0.000044936-0.000001510
      38
-0.000000000-0.000000000 0.000000388 0.000008606 0.000050200-0.000000523
      39
-0.000000000-0.000000000 0.000000148 0.000008877 0.000054274 0.000000546
      40
-0.000000000-0.000000000-0.000000078 0.000008555 0.000057129 0.000001527
      41
-0.000000000-0.000000000-0.000000180 0.000002221 0.000002221 0.000064003
      42
-0.000000000-0.000000000-0.000000056 0.000002457 0.000052853 0.000011869
      43
-0.000000000-0.000000000 0.000000282 0.000002206 0.000050015 0.000011256
      44
-0.000000000-0.000000000 0.000000692 0.000001601 0.000044455 0.000011640
      45
-0.000000000-0.000000000 0.000001007 0.000000831 0.000036769 0.000012762
      46
-0.000000000-0.000000000 0.000001135 0.000000039 0.000027498 0.000014504
      47
-0.000000000-0.000000000 0.000001060-0.000000688 0.000017904 0.000016073
      48
-0.000000000-0.000000000 0.000000817-0.000001304 0.000009930 0.000016006
      49
-0.000000000-0.000000000 0.000000467-0.000001779 0.000004771 0.000013560
      50
-0.000000000-0.000000000 0.000000073-0.000002102 0.000002118 0.000009427
      51
-0.000000000-0.000000000-0.000000302-0.000002268 0.000001100 0.000004769
      52
-0.000000000-0.000000000-0.000000610-0.000002285 0.000001012 0.000000463
      53
-0.000000000-0.000000000-0.000000820-0.000002168 0.000001396-0.000002975
      54
-0.000000000-0.000000000-0.000000917-0.000001944 0.000001936-0.000005299
      55
-0.000000000-0.000000000-0.000000906-0.000001643 0.000002399-0.000006445
      56
-0.000000000-0.000000000-0.000000808-0.000001301 0.000002606-0.000006483
      57
-0.000000000-0.000000000-0.000000654-0.000000955 0.000002439-0.000005591
      58
-0.000000000-0.000000000-0.000000481-0.000000643 0.000001868-0.000004050
      59
-0.000000000-0.000000000-0.000000325-0.000000394 0.000001008-0.000002261
      60
-0.000000000-0.000000218-0.000000000-0.000000235 0.000000176-0.000000772
      61
-0.000000000-0.000000180-0.000000000-0.000000180-0.000000180-0.000000180
      62
-0.000000000-0.000000173-0.000000000-0.000000164-0.000000179-0.000000171
      63
-0.000000000-0.000000154-0.000000000-0.000000159-0.000000136-0.000000141
      64
-0.000000000-0.000000132-0.000000000-0.000000181-0.000000077-0.000000027
      65
-0.000000000-0.000000114-0.000000000-0.000000234 0.000000031 0.000000151
      66
-0.000000000-0.000000109-0.000000000-0.000000307 0.000000179 0.000000377
      67
-0.000000000-0.000000119-0.000000000-0.000000380 0.000000343 0.000000603
      68
-0.000000000-0.000000142-0.000000000-0.000000425 0.000000469 0.000000752
      69
-0.000000000-0.000000167-0.000000000-0.000000415 0.000000483 0.000000731
      70
-0.000000000-0.000000184-0.000000000-0.000000335 0.000000295 0.000000446
      71
-0.000000000-0.000000180-0.000000000-0.000000180-0.000000180-0.000000180
      72
-0.000000000-0.000000146-0.000000000 0.000000037-0.000000993-0.000001176
      73
-0.000000000-0.000000082-0.000000000 0.000000284-0.000002144-0.000002511
      74
-0.000000000 0.000000002-0.000000000 0.000000523-0.000003555-0.000004077
      75
-0.000000000 0.000000090-0.000000000 0.000000710-0.000005064-0.000005684
      76
-0.000000000 0.000000158 0.000000806-0.000000000-0.000006425-0.000007074
      77
-0.000000000 0.000000185 0.000000789-0.000000000-0.000007333-0.000007939
      78
-0.000000000 0.000000159 0.000000656-0.000000000-0.000007452-0.000007950
      79
-0.000000000 0.000000079 0.000000424-0.000000000-0.000006459-0.000006805
      80
-0.000000000-0.000000042 0.000000130-0.000000000-0.000004087-0.000004260
      81
-0.000000000-0.000000180-0.000000179-0.000000000-0.000000173-0.000000175
      82
-0.000000000-0.000000308-0.000000456-0.000000000 0.000005314 0.000005461
      83
-0.000000000-0.000000402-0.000000659-0.000000000 0.000012249 0.000012505
      84
-0.000000000-0.000000446-0.000000763-0.000000000 0.000020344 0.000020660
      85
-0.000000000-0.000000433-0.000000761-0.000000000 0.000029164 0.000029491
      86
-0.000000000-0.000000372-0.000000666-0.000000000 0.000038160 0.000038452
      87
-0.000000000-0.000000280-0.000000507-0.000000000 0.000046710 0.000046938
      88
-0.000000000-0.000000177-0.000000324-0.000000000 0.000054185 0.000054332
      89
-0.000000000-0.000000085-0.000000157-0.000000000 0.000060002 0.000060075
      90
-0.000000000-0.000000022-0.000000041-0.000000000 0.000063696 0.000063715
      91
-0.000000000-0.000000000 0.000000000-0.000000000 0.000064962 0.000064962
 Broadening   0.0600
       1
 0.000000000-0.000000000-0.000000000-0.000000000 0.000066450 0.000066450
       2
-0.000000000-0.000000018-0.000000031-0.000000000 0.000065499 0.000065505
       3
-0.000000000-0.000000069-0.000000119-0.000000000 0.000062706 0.000062725
       4
-0.000000000-0.000000150-0.000000248-0.000000000 0.000058251 0.000058273
       5
-0.000000000-0.000000255-0.000000393-0.000000000 0.000052413 0.000052403
       6
-0.000000000-0.000000374-0.000000525-0.000000000 0.000045551 0.000045447
       7
-0.000000000-0.000000496-0.000000609-0.000000000 0.000038072 0.000037787
       8
-0.000000000-0.000000611-0.000000618-0.000000000 0.000030400 0.000029831
       9
-0.000000000-0.000000707-0.000000531-0.000000000 0.000022946 0.000021982
      10
-0.000000000-0.000000775-0.000000339-0.000000000 0.000016073 0.000014612
      11
-0.000000000-0.000000810-0.000000054-0.000000000 0.000010077 0.000008043
      12
-0.000000000-0.000000810 0.000000300-0.000000000 0.000005167 0.000002521
      13
-0.000000000-0.000000776 0.000000679-0.000000000 0.000001453-0.000001792
      14
-0.000000000-0.000000715 0.000001031-0.000000000-0.000001055-0.000004825
      15
-0.000000000-0.000000635 0.000001299-0.000000000-0.000002439-0.000006598
      16
-0.000000000-0.000000546 0.000001432-0.000000000-0.000002863-0.000007213
      17
-0.000000000-0.000000459 0.000001393-0.000000000-0.000002552-0.000006841
      18
-0.000000000-0.000000382 0.000001172-0.000000000-0.000001765-0.000005704
      19
-0.000000000-0.000000322 0.000000781-0.000000000-0.000000771-0.000004053
      20
-0.000000000-0.000000283 0.000000265-0.000000000 0.000000184-0.000002147
      21
-0.000000000-0.000000264-0.000000000-0.000000310 0.000000905-0.000000230
      22
-0.000000000-0.000000260-0.000000000-0.000000867 0.000001273 0.000001485
      23
-0.000000000-0.000000266-0.000000000-0.000001329 0.000001263 0.000002834
      24
-0.000000000-0.000000272-0.000000000-0.000001636 0.000000954 0.000003710
      25
-0.000000000-0.000000271-0.000000000-0.000001746 0.000000518 0.000004067
      26
-0.000000000-0.000000254-0.000000000-0.000001646 0.000000196 0.000003918
      27
-0.000000000-0.000000000-0.000000215-0.000001338 0.000000265 0.000003329
      28
-0.000000000-0.000000000-0.000000149-0.000000836 0.000000998 0.000002407
      29
-0.000000000-0.000000000-0.000000057-0.000000158 0.000002620 0.000001283
      30
-0.000000000-0.000000000 0.000000059 0.000000675 0.000005280 0.000000102
      31
-0.000000000-0.000000000 0.000000191 0.000001641 0.000009031-0.000000997
      32
-0.000000000-0.000000000 0.000000326 0.000002712 0.000013816-0.000001892
      33
-0.000000000-0.000000000 0.000000451 0.000003850 0.000019476-0.000002489
      34
 0.000000000 0.000000000 0.000000545 0.000005007 0.000025756-0.000002731
      35
 0.000000000 0.000000000 0.000000588 0.000006124 0.000032329-0.000002597
      36
 0.000000000 0.000000000 0.000000562 0.000007138 0.000038817-0.000002108
      37
 0.000000000 0.000000000 0.000000454 0.000007984 0.000044822-0.000001321
      38
 0.000000000 0.000000000 0.000000264 0.000008599 0.000049966-0.000000329
      39
 0.000000000 0.000000000 0.000000019 0.000008901 0.000053945 0.000000739
      40
 0.000000000 0.000000000-0.000000211 0.000008618 0.000056730 0.000001712
      41
 0.000000000 0.000000000-0.000000315 0.000002387 0.000002387 0.000063505
      42
 0.000000000 0.000000000-0.000000189 0.000002596 0.000052459 0.000011970
      43
 0.000000000 0.000000000 0.000000154 0.000002310 0.000049645 0.000011402
      44
 0.000000000 0.000000000 0.000000568 0.000001669 0.000044141 0.000011820
      45
 0.000000000 0.000000000 0.000000885 0.000000863 0.000036530 0.000012971
      46
 0.000000000 0.000000000 0.000001010 0.000000040 0.000027341 0.000014739
      47
 0.000000000 0.000000000 0.000000930-0.000000716 0.000017819 0.000016339
      48
 0.000000000 0.000000000 0.000000681-0.000001355 0.000009890 0.000016315
      49
 0.000000000 0.000000000 0.000000325-0.000001852 0.000004743 0.000013923
      50
-0.000000000-0.000000000-0.000000074-0.000002192 0.000002075 0.000009845
      51
-0.000000000-0.000000000-0.000000453-0.000002372 0.000001023 0.000005229
      52
-0.000000000-0.000000000-0.000000763-0.000002399 0.000000893 0.000000944
      53
-0.000000000-0.000000000-0.000000973-0.000002291 0.000001230-0.000002500
      54
-0.000000000-0.000000000-0.000001069-0.000002073 0.000001730-0.000004858
      55
-0.000000000-0.000000000-0.000001056-0.000001775 0.000002163-0.000006065
      56
-0.000000000-0.000000000-0.000000955-0.000001435 0.000002357-0.000006187
      57
-0.000000000-0.000000000-0.000000797-0.000001091 0.000002195-0.000005398
      58
-0.000000000-0.000000000-0.000000621-0.000000778 0.000001648-0.000003968
      59
-0.000000000-0.000000000-0.000000462-0.000000529 0.000000825-0.000002285
      60
-0.000000000-0.000000353-0.000000000-0.000000370 0.000000029-0.000000875
      61
-0.000000000-0.000000315-0.000000000-0.000000315-0.000000312-0.000000313
      62
-0.000000000-0.000000306-0.000000000-0.000000279-0.000000333-0.000000311
      63
-0.000000000-0.000000285-0.000000000-0.000000257-0.000000311-0.000000297
      64
-0.000000000-0.000000258-0.000000000-0.000000268-0.000000258-0.000000221
      65
-0.000000000-0.000000236-0.000000000-0.000000314-0.000000178-0.000000058
      66
-0.000000000-0.000000227-0.000000000-0.000000387-0.000000054 0.000000160
      67
-0.000000000-0.000000236-0.000000000-0.000000464 0.000000093 0.000000385
      68
-0.000000000-0.000000259-0.000000000-0.000000518 0.000000218 0.000000541
      69
-0.000000000-0.000000288-0.000000000-0.000000521 0.000000250 0.000000538
      70
-0.000000000-0.000000311-0.000000000-0.000000454 0.000000102 0.000000279
      71
-0.000000000-0.000000315-0.000000000-0.000000312-0.000000307-0.000000309
      72
-0.000000000-0.000000290-0.000000000-0.000000107-0.000001031-0.000001257
      73
-0.000000000-0.000000234-0.000000000 0.000000132-0.000002070-0.000002535
      74
-0.000000000-0.000000155-0.000000000 0.000000367-0.000003351-0.000004034
      75
-0.000000000-0.000000071-0.000000000 0.000000555-0.000004716-0.000005566
      76
-0.000000000-0.000000002 0.000000658-0.000000000-0.000005926-0.000006873
      77
-0.000000000 0.000000031 0.000000652-0.000000000-0.000006681-0.000007646
      78
-0.000000000 0.000000014 0.000000534-0.000000000-0.000006651-0.000007561
      79
-0.000000000-0.000000052 0.000000320-0.000000000-0.000005518-0.000006313
      80
-0.000000000-0.000000157 0.000000045-0.000000000-0.000003021-0.000003660
      81
-0.000000000-0.000000279-0.000000246-0.000000000 0.000001004 0.000000538
      82
-0.000000000-0.000000391-0.000000506-0.000000000 0.000006583 0.000006287
      83
-0.000000000-0.000000469-0.000000694-0.000000000 0.000013591 0.000013444
      84
-0.000000000-0.000000497-0.000000786-0.000000000 0.000021741 0.000021709
      85
-0.000000000-0.000000472-0.000000775-0.000000000 0.000030601 0.000030643
      86
-0.000000000-0.000000399-0.000000673-0.000000000 0.000039622 0.000039699
      87
-0.000000000-0.000000297-0.000000511-0.000000000 0.000048188 0.000048267
      88
-0.000000000-0.000000186-0.000000326-0.000000000 0.000055669 0.000055729
      89
-0.000000000-0.000000089-0.000000158-0.000000000 0.000061489 0.000061521
      90
-0.000000000-0.000000023-0.000000041-0.000000000 0.000065184 0.000065192
      91
 0.000000000-0.000000000-0.000000000-0.000000000 0.000066450 0.000066450
 Broadening   0.0800
       1
 0.000000000-0.000000000-0.000000000-0.000000000 0.000069393 0.000069393
       2
-0.000000000-0.000000013-0.000000022-0.000000000 0.000068526 0.000068488
       3
-0.000000000-0.000000049-0.000000084-0.000000000 0.000065979 0.000065823
       4
-0.000000000-0.000000107-0.000000175-0.000000000 0.000061912 0.000061549
       5
-0.000000000-0.000000181-0.000000275-0.000000000 0.000056576 0.000055902
       6
-0.000000000-0.000000265-0.000000362-0.000000000 0.000050291 0.000049190
       7
-0.000000000-0.000000349-0.000000411-0.000000000 0.000043425 0.000041768
       8
-0.000000000-0.000000427-0.000000401-0.000000000 0.000036359 0.000034018
       9
-0.000000000-0.000000489-0.000000318-0.000000000 0.000029463 0.000026316
      10
-0.000000000-0.000000530-0.000000156-0.000000000 0.000023069 0.000019015
      11
-0.000000000-0.000000545 0.000000074-0.000000000 0.000017446 0.000012420
      12
-0.000000000-0.000000535 0.000000351-0.000000000 0.000012789 0.000006770
      13
 0.000000000-0.000000501 0.000000641 0.000000000 0.000009203 0.000002225
      14
 0.000000000-0.000000449 0.000000901 0.000000000 0.000006707-0.000001136
      15
 0.000000000-0.000000387 0.000001086 0.000000000 0.000005234-0.000003319
      16
 0.000000001-0.000000321 0.000001159 0.000000001 0.000004644-0.000004405
      17
 0.000000001-0.000000262 0.000001094 0.000000001 0.000004742-0.000004539
      18
 0.000000001-0.000000215 0.000000885 0.000000001 0.000005301-0.000003917
      19
 0.000000000-0.000000185 0.000000549 0.000000000 0.000006083-0.000002761
      20
 0.000000000-0.000000174 0.000000127 0.000000000 0.000006870-0.000001303
      21
-0.000000000-0.000000179-0.000000000-0.000000326 0.000007484 0.000000232
      22
-0.000000000-0.000000198-0.000000000-0.000000744 0.000007818 0.000001650
      23
-0.000000001-0.000000223-0.000000001-0.000001066 0.000007845 0.000002797
      24
-0.000000001-0.000000247-0.000000001-0.000001246 0.000007628 0.000003569
      25
-0.000000001-0.000000262-0.000000001-0.000001258 0.000007313 0.000003914
      26
-0.000000001-0.000000262-0.000000001-0.000001095 0.000007108 0.000003836
      27
-0.000000001-0.000000001-0.000000241-0.000000767 0.000007250 0.000003383
      28
-0.000000001-0.000000001-0.000000197-0.000000291 0.000007973 0.000002641
      29
-0.000000000-0.000000000-0.000000129 0.000000316 0.000009470 0.000001721
      30
 0.000000000 0.000000000-0.000000041 0.000001039 0.000011866 0.000000743
      31
 0.000000001 0.000000001 0.000000062 0.000001863 0.000015204-0.000000173
      32
 0.000000003 0.000000002 0.000000167 0.000002770 0.000019432-0.000000923
      33
 0.000000004 0.000000004 0.000000262 0.000003737 0.000024407-0.000001427
      34
 0.000000005 0.000000005 0.000000331 0.000004732 0.000029907-0.000001634
      35
 0.000000007 0.000000006 0.000000356 0.000005714 0.000035642-0.000001527
      36
 0.000000008 0.000000008 0.000000320 0.000006636 0.000041282-0.000001122
      37
 0.000000009 0.000000009 0.000000212 0.000007449 0.000046478-0.000000468
      38
 0.000000010 0.000000010 0.000000035 0.000008102 0.000050899 0.000000354
      39
 0.000000011 0.000000011-0.000000189 0.000008521 0.000054280 0.000001233
      40
 0.000000011 0.000000011-0.000000397 0.000008442 0.000056620 0.000002019
      41
 0.000000012 0.000000012-0.000000490 0.000002536 0.000002536 0.000063080
      42
 0.000000011 0.000000011-0.000000379 0.000002640 0.000052012 0.000012396
      43
 0.000000011 0.000000011-0.000000080 0.000002314 0.000049242 0.000012254
      44
 0.000000010 0.000000010 0.000000272 0.000001685 0.000043898 0.000013156
      45
 0.000000009 0.000000009 0.000000531 0.000000926 0.000036498 0.000014852
      46
 0.000000008 0.000000008 0.000000615 0.000000163 0.000027500 0.000017226
      47
 0.000000007 0.000000007 0.000000517-0.000000533 0.000018105 0.000019464
      48
 0.000000006 0.000000006 0.000000274-0.000001122 0.000010243 0.000020039
      49
 0.000000004 0.000000005-0.000000058-0.000001583 0.000005114 0.000018133
      50
 0.000000003 0.000000004-0.000000420-0.000001906 0.000002407 0.000014392
      51
 0.000000002 0.000000003-0.000000757-0.000002089 0.000001249 0.000009946
      52
 0.000000002 0.000000002-0.000001025-0.000002138 0.000000955 0.000005652
      53
 0.000000001 0.000000002-0.000001198-0.000002070 0.000001094 0.000002013
      54
 0.000000001 0.000000001-0.000001266-0.000001904 0.000001392-0.000000720
      55
 0.000000000 0.000000001-0.000001233-0.000001668 0.000001657-0.000002464
      56
 0.000000000 0.000000001-0.000001122-0.000001394 0.000001751-0.000003255
      57
 0.000000000 0.000000001-0.000000962-0.000001113 0.000001584-0.000003221
      58
 0.000000000 0.000000001-0.000000787-0.000000856 0.000001135-0.000002570
      59
 0.000000000 0.000000001-0.000000632-0.000000651 0.000000491-0.000001602
      60
 0.000000000-0.000000527 0.000000001-0.000000519-0.000000120-0.000000720
      61
 0.000000000-0.000000489 0.000000001-0.000000474-0.000000379-0.000000357
      62
 0.000000000-0.000000476 0.000000001-0.000000315-0.000000533-0.000000384
      63
 0.000000000-0.000000439 0.000000001-0.000000214-0.000000616-0.000000453
      64
 0.000000000-0.000000390 0.000000001-0.000000168-0.000000533-0.000000622
      65
-0.000000000-0.000000345 0.000000001-0.000000181-0.000000587-0.000000538
      66
-0.000000000-0.000000318 0.000000000-0.000000246-0.000000581-0.000000372
      67
-0.000000000-0.000000317 0.000000000-0.000000338-0.000000501-0.000000162
      68
-0.000000000-0.000000342-0.000000000-0.000000428-0.000000359 0.000000031
      69
-0.000000000-0.000000388-0.000000000-0.000000484-0.000000196 0.000000127
      70
-0.000000000-0.000000439-0.000000000-0.000000482-0.000000073 0.000000041
      71
-0.000000000-0.000000480-0.000000000-0.000000407-0.000000058-0.000000294
      72
 0.000000000-0.000000496 0.000000000-0.000000263-0.000000205-0.000000906
      73
 0.000000000-0.000000477 0.000000000-0.000000069-0.000000526-0.000001768
      74
 0.000000001-0.000000424 0.000000000 0.000000142-0.000000977-0.000002784
      75
 0.000000001-0.000000347 0.000000001 0.000000333-0.000001442-0.000003784
      76
 0.000000001-0.000000264 0.000000468 0.000000001-0.000001735-0.000004533
      77
 0.000000001-0.000000194 0.000000520 0.000000001-0.000001612-0.000004755
      78
 0.000000001-0.000000156 0.000000481 0.000000001-0.000000802-0.000004154
      79
 0.000000000-0.000000155 0.000000356 0.000000000 0.000000960-0.000002458
      80
 0.000000000-0.000000189 0.000000170 0.000000000 0.000003893 0.000000550
      81
-0.000000000-0.000000245-0.000000043-0.000000000 0.000008131 0.000004988
      82
-0.000000000-0.000000304-0.000000246-0.000000000 0.000013691 0.000010854
      83
-0.000000000-0.000000347-0.000000405-0.000000000 0.000020457 0.000018003
      84
-0.000000000-0.000000361-0.000000496-0.000000000 0.000028171 0.000026147
      85
-0.000000000-0.000000340-0.000000512-0.000000000 0.000036449 0.000034871
      86
-0.000000000-0.000000287-0.000000457-0.000000000 0.000044804 0.000043655
      87
-0.000000000-0.000000213-0.000000354-0.000000000 0.000052689 0.000051927
      88
-0.000000000-0.000000134-0.000000228-0.000000000 0.000059547 0.000059108
      89
-0.000000000-0.000000064-0.000000111-0.000000000 0.000064867 0.000064669
      90
-0.000000000-0.000000017-0.000000029-0.000000000 0.000068238 0.000068188
      91
 0.000000000-0.000000000-0.000000000-0.000000000 0.000069393 0.000069393
 Broadening   0.1000
       1
 0.000000000 0.000000000-0.000000000-0.000000000 0.000074323 0.000074323
       2
-0.000000000-0.000000004-0.000000007-0.000000000 0.000073599 0.000073488
       3
-0.000000001-0.000000016-0.000000026-0.000000001 0.000071470 0.000071029
       4
-0.000000002-0.000000035-0.000000050-0.000000002 0.000068065 0.000067075
       5
-0.000000003-0.000000059-0.000000073-0.000000003 0.000063583 0.000061830
       6
-0.000000004-0.000000084-0.000000082-0.000000004 0.000058283 0.000055562
       7
-0.000000005-0.000000108-0.000000066-0.000000005 0.000052459 0.000048581
       8
-0.000000005-0.000000127-0.000000017-0.000000006 0.000046422 0.000041222
       9
-0.000000005-0.000000139 0.000000073-0.000000005 0.000040474 0.000033818
      10
-0.000000004-0.000000140 0.000000201-0.000000004 0.000034889 0.000026685
      11
-0.000000002-0.000000130 0.000000361-0.000000002 0.000029896 0.000020101
      12
-0.000000000-0.000000111 0.000000538-0.000000000 0.000025664 0.000014288
      13
 0.000000002-0.000000085 0.000000709 0.000000002 0.000022293 0.000009405
      14
 0.000000004-0.000000056 0.000000850 0.000000005 0.000019814 0.000005541
      15
 0.000000006-0.000000028 0.000000937 0.000000007 0.000018191 0.000002715
      16
 0.000000007-0.000000005 0.000000949 0.000000009 0.000017326 0.000000877
      17
 0.000000008 0.000000009 0.000000878 0.000000009 0.000017078-0.000000077
      18
 0.000000007 0.000000010 0.000000725 0.000000009 0.000017273-0.000000296
      19
 0.000000006-0.000000001 0.000000510 0.000000007 0.000017730 0.000000043
      20
 0.000000003-0.000000025 0.000000264 0.000000004 0.000018274 0.000000751
      21
 0.000000000-0.000000057 0.000000000 0.000000027 0.000018762 0.000001642
      22
-0.000000003-0.000000095-0.000000004-0.000000157 0.000019101 0.000002549
      23
-0.000000007-0.000000134-0.000000008-0.000000253 0.000019257 0.000003334
      24
-0.000000009-0.000000168-0.000000012-0.000000238 0.000019264 0.000003898
      25
-0.000000009-0.000000193-0.000000013-0.000000105 0.000019219 0.000004185
      26
-0.000000008-0.000000206-0.000000013 0.000000135 0.000019267 0.000004179
      27
-0.000000003-0.000000010-0.000000204 0.000000466 0.000019574 0.000003902
      28
 0.000000004-0.000000003-0.000000188 0.000000867 0.000020306 0.000003407
      29
 0.000000015 0.000000008-0.000000157 0.000001326 0.000021599 0.000002768
      30
 0.000000030 0.000000022-0.000000116 0.000001832 0.000023541 0.000002070
      31
 0.000000048 0.000000039-0.000000069 0.000002386 0.000026157 0.000001398
      32
 0.000000068 0.000000060-0.000000025 0.000002987 0.000029405 0.000000829
      33
 0.000000091 0.000000083 0.000000008 0.000003634 0.000033176 0.000000423
      34
 0.000000114 0.000000107 0.000000019 0.000004322 0.000037302 0.000000219
      35
 0.000000137 0.000000131-0.000000003 0.000005040 0.000041566 0.000000231
      36
 0.000000159 0.000000154-0.000000069 0.000005771 0.000045721 0.000000450
      37
 0.000000179 0.000000175-0.000000186 0.000006494 0.000049503 0.000000841
      38
 0.000000195 0.000000192-0.000000349 0.000007178 0.000052663 0.000001345
      39
 0.000000207 0.000000206-0.000000540 0.000007767 0.000055006 0.000001882
      40
 0.000000214 0.000000214-0.000000709 0.000008003 0.000056582 0.000002340
      41
 0.000000217 0.000000217-0.000000782 0.000002591 0.000002591 0.000062546
      42
 0.000000214 0.000000214-0.000000698 0.000002534 0.000051389 0.000012972
      43
 0.000000207 0.000000207-0.000000480 0.000002168 0.000048719 0.000013554
      44
 0.000000194 0.000000195-0.000000237 0.000001602 0.000043667 0.000015298
      45
 0.000000178 0.000000181-0.000000082 0.000000965 0.000036639 0.000017966
      46
 0.000000160 0.000000164-0.000000069 0.000000348 0.000027966 0.000021446
      47
 0.000000139 0.000000145-0.000000194-0.000000204 0.000018768 0.000024881
      48
 0.000000118 0.000000127-0.000000424-0.000000669 0.000010989 0.000026609
      49
 0.000000097 0.000000110-0.000000711-0.000001036 0.000005872 0.000025661
      50
 0.000000078 0.000000094-0.000001007-0.000001301 0.000003101 0.000022607
      51
 0.000000061 0.000000081-0.000001268-0.000001466 0.000001787 0.000018548
      52
 0.000000047 0.000000070-0.000001462-0.000001536 0.000001249 0.000014324
      53
 0.000000035 0.000000062-0.000001571-0.000001523 0.000001092 0.000010427
      54
 0.000000026 0.000000057-0.000001589-0.000001440 0.000001092 0.000007120
      55
 0.000000020 0.000000055-0.000001524-0.000001308 0.000001114 0.000004518
      56
 0.000000016 0.000000054-0.000001397-0.000001145 0.000001073 0.000002640
      57
 0.000000014 0.000000055-0.000001232-0.000000975 0.000000926 0.000001437
      58
 0.000000013 0.000000056-0.000001062-0.000000818 0.000000663 0.000000805
      59
 0.000000013 0.000000058-0.000000915-0.000000691 0.000000329 0.000000592
      60
 0.000000013-0.000000816 0.000000059-0.000000609 0.000000031 0.000000603
      61
 0.000000013-0.000000781 0.000000059-0.000000580-0.000000093 0.000000637
      62
 0.000000014-0.000000760 0.000000057-0.000000169-0.000000500 0.000000590
      63
 0.000000014-0.000000701 0.000000050 0.000000043-0.000000696 0.000000467
      64
 0.000000014-0.000000622 0.000000042 0.000000172 0.000000311-0.000000788
      65
 0.000000012-0.000000543 0.000000032 0.000000216 0.000000188-0.000000764
      66
 0.000000009-0.000000486 0.000000023 0.000000181 0.000000160-0.000000622
      67
 0.000000006-0.000000466 0.000000016 0.000000086 0.000000281-0.000000386
      68
 0.000000003-0.000000487 0.000000009-0.000000038 0.000000577-0.000000102
      69
 0.000000001-0.000000546 0.000000004-0.000000159 0.000001043 0.000000169
      70
 0.000000001-0.000000628 0.000000002-0.000000244 0.000001650 0.000000360
      71
 0.000000001-0.000000711 0.000000001-0.000000270 0.000002349 0.000000419
      72
 0.000000002-0.000000774 0.000000001-0.000000227 0.000003092 0.000000325
      73
 0.000000003-0.000000798 0.000000003-0.000000121 0.000003847 0.000000105
      74
 0.000000005-0.000000773 0.000000004 0.000000030 0.000004624-0.000000160
      75
 0.000000007-0.000000701 0.000000006 0.000000198 0.000005481-0.000000325
      76
 0.000000008-0.000000593 0.000000352 0.000000007 0.000006531-0.000000195
      77
 0.000000007-0.000000470 0.000000466 0.000000007 0.000007931 0.000000463
      78
 0.000000006-0.000000351 0.000000523 0.000000007 0.000009865 0.000001890
      79
 0.000000005-0.000000253 0.000000516 0.000000005 0.000012517 0.000004307
      80
 0.000000002-0.000000184 0.000000451 0.000000003 0.000016034 0.000007883
      81
-0.000000000-0.000000145 0.000000345-0.000000000 0.000020506 0.000012702
      82
-0.000000002-0.000000128 0.000000220-0.000000002 0.000025931 0.000018740
      83
-0.000000004-0.000000123 0.000000099-0.000000004 0.000032207 0.000025851
      84
-0.000000005-0.000000120 0.000000001-0.000000005 0.000039124 0.000033765
      85
-0.000000005-0.000000111-0.000000064-0.000000006 0.000046374 0.000042102
      86
-0.000000005-0.000000094-0.000000091-0.000000005 0.000053571 0.000050396
      87
-0.000000004-0.000000070-0.000000088-0.000000004 0.000060283 0.000058138
      88
-0.000000002-0.000000044-0.000000064-0.000000003 0.000066073 0.000064815
      89
-0.000000001-0.000000021-0.000000033-0.000000001 0.000070539 0.000069963
      90
-0.000000000-0.000000006-0.000000009-0.000000000 0.000073358 0.000073212
      91
 0.000000000 0.000000000-0.000000000-0.000000000 0.000074323 0.000074323
 Broadening   0.1200
       1
-0.000000000-0.000000000-0.000000000-0.000000000 0.000079954 0.000079954
       2
-0.000000001 0.000000003 0.000000006-0.000000001 0.000079378 0.000079195
       3
-0.000000002 0.000000010 0.000000025-0.000000003 0.000077680 0.000076953
       4
-0.000000004 0.000000022 0.000000057-0.000000006 0.000074957 0.000073338
       5
-0.000000007 0.000000038 0.000000103-0.000000009 0.000071357 0.000068522
       6
-0.000000009 0.000000058 0.000000165-0.000000012 0.000067073 0.000062731
       7
-0.000000011 0.000000081 0.000000241-0.000000014 0.000062330 0.000056229
       8
-0.000000011 0.000000106 0.000000334-0.000000015 0.000057361 0.000049301
       9
-0.000000010 0.000000133 0.000000441-0.000000013 0.000052401 0.000042237
      10
-0.000000008 0.000000159 0.000000559-0.000000010 0.000047665 0.000035314
      11
-0.000000004 0.000000183 0.000000680-0.000000004 0.000043336 0.000028778
      12
 0.000000001 0.000000203 0.000000797 0.000000003 0.000039555 0.000022836
      13
 0.000000006 0.000000216 0.000000897 0.000000010 0.000036417 0.000017641
      14
 0.000000011 0.000000222 0.000000971 0.000000018 0.000033962 0.000013292
      15
 0.000000015 0.000000217 0.000001009 0.000000024 0.000032184 0.000009827
      16
 0.000000018 0.000000200 0.000001006 0.000000028 0.000031027 0.000007231
      17
 0.000000018 0.000000173 0.000000963 0.000000029 0.000030402 0.000005438
      18
 0.000000016 0.000000135 0.000000888 0.000000027 0.000030194 0.000004344
      19
 0.000000013 0.000000090 0.000000798 0.000000021 0.000030272 0.000003819
      20
 0.000000009 0.000000039 0.000000716 0.000000013 0.000030513 0.000003717
      21
 0.000000005-0.000000014 0.000000004 0.000000666 0.000030806 0.000003890
      22
 0.000000002-0.000000066-0.000000004 0.000000672 0.000031072 0.000004200
      23
 0.000000004-0.000000113-0.000000010 0.000000749 0.000031273 0.000004530
      24
 0.000000012-0.000000153-0.000000011 0.000000901 0.000031415 0.000004787
      25
 0.000000027-0.000000185-0.000000004 0.000001121 0.000031547 0.000004912
      26
 0.000000053-0.000000210 0.000000013 0.000001389 0.000031752 0.000004873
      27
 0.000000090 0.000000043-0.000000226 0.000001684 0.000032129 0.000004669
      28
 0.000000139 0.000000086-0.000000238 0.000001986 0.000032779 0.000004322
      29
 0.000000200 0.000000143-0.000000245 0.000002286 0.000033785 0.000003874
      30
 0.000000274 0.000000214-0.000000253 0.000002582 0.000035199 0.000003376
      31
 0.000000357 0.000000297-0.000000264 0.000002881 0.000037032 0.000002880
      32
 0.000000449 0.000000391-0.000000282 0.000003200 0.000039253 0.000002437
      33
 0.000000546 0.000000492-0.000000314 0.000003556 0.000041787 0.000002089
      34
 0.000000643 0.000000597-0.000000363 0.000003965 0.000044520 0.000001861
      35
 0.000000739 0.000000700-0.000000436 0.000004441 0.000047306 0.000001767
      36
 0.000000827 0.000000797-0.000000536 0.000004993 0.000049979 0.000001801
      37
 0.000000905 0.000000883-0.000000666 0.000005622 0.000052359 0.000001942
      38
 0.000000968 0.000000955-0.000000820 0.000006319 0.000054277 0.000002153
      39
 0.000001015 0.000001009-0.000000983 0.000007043 0.000055605 0.000002380
      40
 0.000001044 0.000001042-0.000001118 0.000007547 0.000056441 0.000002547
      41
 0.000001053 0.000001053-0.000001174 0.000002570 0.000002570 0.000061934
      42
 0.000001043 0.000001044-0.000001114 0.000002385 0.000050721 0.000013402
      43
 0.000001011 0.000001017-0.000000966 0.000002007 0.000048183 0.000014640
      44
 0.000000961 0.000000974-0.000000816 0.000001523 0.000043460 0.000017168
      45
 0.000000895 0.000000920-0.000000745 0.000001024 0.000036840 0.000020770
      46
 0.000000818 0.000000858-0.000000785 0.000000568 0.000028521 0.000025362
      47
 0.000000733 0.000000791-0.000000924 0.000000175 0.000019530 0.000030058
      48
 0.000000645 0.000000724-0.000001132-0.000000147 0.000011828 0.000033065
      49
 0.000000559 0.000000660-0.000001369-0.000000399 0.000006727 0.000033247
      50
 0.000000477 0.000000602-0.000001598-0.000000584 0.000003926 0.000031076
      51
 0.000000402 0.000000552-0.000001788-0.000000705 0.000002524 0.000027616
      52
 0.000000338 0.000000512-0.000001917-0.000000768 0.000001842 0.000023684
      53
 0.000000284 0.000000482-0.000001972-0.000000781 0.000001506 0.000019767
      54
 0.000000241 0.000000462-0.000001953-0.000000754 0.000001332 0.000016135
      55
 0.000000209 0.000000450-0.000001868-0.000000697 0.000001228 0.000012933
      56
 0.000000186 0.000000446-0.000001736-0.000000621 0.000001153 0.000010228
      57
 0.000000171 0.000000446-0.000001579-0.000000539 0.000001091 0.000008045
      58
 0.000000162 0.000000449-0.000001422-0.000000462 0.000001040 0.000006376
      59
 0.000000157 0.000000453-0.000001289-0.000000399 0.000001004 0.000005201
      60
 0.000000154-0.000001201 0.000000456-0.000000359 0.000000986 0.000004502
      61
 0.000000153-0.000001170 0.000000457-0.000000344 0.000000981 0.000004270
      62
 0.000000157-0.000001144 0.000000440 0.000000400 0.000000255 0.000004233
      63
 0.000000163-0.000001071 0.000000397 0.000000669 0.000000045 0.000004141
      64
 0.000000162-0.000000969 0.000000341 0.000000836 0.000004044-0.000000020
      65
 0.000000151-0.000000864 0.000000280 0.000000915 0.000004011 0.000000053
      66
 0.000000132-0.000000779 0.000000219 0.000000908 0.000004120 0.000000264
      67
 0.000000107-0.000000734 0.000000163 0.000000829 0.000004437 0.000000596
      68
 0.000000081-0.000000737 0.000000113 0.000000700 0.000005010 0.000001017
      69
 0.000000056-0.000000785 0.000000071 0.000000552 0.000005854 0.000001481
      70
 0.000000036-0.000000865 0.000000040 0.000000415 0.000006961 0.000001943
      71
 0.000000021-0.000000955 0.000000019 0.000000316 0.000008296 0.000002368
      72
 0.000000012-0.000001029 0.000000007 0.000000273 0.000009816 0.000002750
      73
 0.000000007-0.000001062 0.000000002 0.000000291 0.000011483 0.000003118
      74
 0.000000006-0.000001041 0.000000003 0.000000362 0.000013278 0.000003550
      75
 0.000000008-0.000000960 0.000000006 0.000000470 0.000015218 0.000004169
      76
 0.000000009-0.000000826 0.000000593 0.000000010 0.000017356 0.000005137
      77
 0.000000010-0.000000659 0.000000707 0.000000013 0.000019776 0.000006640
      78
 0.000000010-0.000000479 0.000000792 0.000000013 0.000022587 0.000008870
      79
 0.000000008-0.000000309 0.000000833 0.000000011 0.000025895 0.000011993
      80
 0.000000005-0.000000164 0.000000826 0.000000006 0.000029788 0.000016128
      81
 0.000000000-0.000000055 0.000000774 0.000000000 0.000034308 0.000021320
      82
-0.000000004 0.000000018 0.000000685-0.000000006 0.000039438 0.000027521
      83
-0.000000008 0.000000058 0.000000573-0.000000011 0.000045089 0.000034580
      84
-0.000000011 0.000000073 0.000000451-0.000000014 0.000051097 0.000042243
      85
-0.000000011 0.000000071 0.000000334-0.000000015 0.000057226 0.000050168
      86
-0.000000010 0.000000059 0.000000229-0.000000014 0.000063191 0.000057943
      87
-0.000000008 0.000000043 0.000000143-0.000000011 0.000068674 0.000065124
      88
-0.000000005 0.000000027 0.000000079-0.000000007 0.000073352 0.000071269
      89
-0.000000003 0.000000013 0.000000034-0.000000004 0.000076935 0.000075981
      90
-0.000000001 0.000000003 0.000000008-0.000000001 0.000079186 0.000078943
      91
-0.000000000-0.000000000-0.000000000-0.000000000 0.000079954 0.000079954
 Broadening   0.1400
       1
-0.000000000 0.000000000 0.000000000-0.000000000 0.000084935 0.000084935
       2
-0.000000000 0.000000006 0.000000015-0.000000001 0.000084484 0.000084250
       3
-0.000000001 0.000000025 0.000000058-0.000000003 0.000083155 0.000082224
       4
-0.000000001 0.000000054 0.000000128-0.000000006 0.000081014 0.000078947
       5
-0.000000002 0.000000092 0.000000221-0.000000010 0.000078170 0.000074563
       6
-0.000000002 0.000000138 0.000000333-0.000000013 0.000074762 0.000069258
       7
-0.000000002 0.000000187 0.000000458-0.000000014 0.000070950 0.000063254
       8
-0.000000001 0.000000236 0.000000591-0.000000014 0.000066910 0.000056791
       9
 0.000000001 0.000000283 0.000000728-0.000000011 0.000062814 0.000050116
      10
 0.000000003 0.000000323 0.000000861-0.000000005 0.000058825 0.000043467
      11
 0.000000006 0.000000355 0.000000985 0.000000003 0.000055088 0.000037063
      12
 0.000000008 0.000000373 0.000001095 0.000000013 0.000051718 0.000031090
      13
 0.000000010 0.000000378 0.000001185 0.000000023 0.000048800 0.000025695
      14
 0.000000012 0.000000367 0.000001252 0.000000032 0.000046381 0.000020979
      15
 0.000000012 0.000000340 0.000001294 0.000000040 0.000044474 0.000016997
      16
 0.000000012 0.000000299 0.000001314 0.000000045 0.000043058 0.000013760
      17
 0.000000013 0.000000245 0.000001316 0.000000047 0.000042083 0.000011235
      18
 0.000000015 0.000000183 0.000001311 0.000000046 0.000041482 0.000009357
      19
 0.000000020 0.000000114 0.000001310 0.000000044 0.000041169 0.000008036
      20
 0.000000030 0.000000044 0.000001330 0.000000043 0.000041061 0.000007164
      21
 0.000000049-0.000000025 0.000000045 0.000001384 0.000041077 0.000006630
      22
 0.000000080-0.000000089 0.000000054 0.000001484 0.000041155 0.000006325
      23
 0.000000125-0.000000147 0.000000074 0.000001634 0.000041256 0.000006149
      24
 0.000000188-0.000000198 0.000000110 0.000001829 0.000041367 0.000006022
      25
 0.000000272-0.000000243 0.000000166 0.000002057 0.000041504 0.000005883
      26
 0.000000377-0.000000283 0.000000245 0.000002298 0.000041706 0.000005694
      27
 0.000000506 0.000000351-0.000000321 0.000002531 0.000042022 0.000005436
      28
 0.000000659 0.000000485-0.000000359 0.000002741 0.000042505 0.000005111
      29
 0.000000833 0.000000646-0.000000401 0.000002919 0.000043199 0.000004733
      30
 0.000001025 0.000000834-0.000000449 0.000003071 0.000044129 0.000004327
      31
 0.000001233 0.000001044-0.000000506 0.000003208 0.000045298 0.000003922
      32
 0.000001449 0.000001270-0.000000573 0.000003353 0.000046681 0.000003546
      33
 0.000001668 0.000001506-0.000000652 0.000003533 0.000048230 0.000003224
      34
 0.000001883 0.000001743-0.000000746 0.000003774 0.000049871 0.000002974
      35
 0.000002086 0.000001972-0.000000855 0.000004104 0.000051511 0.000002802
      36
 0.000002270 0.000002185-0.000000980 0.000004545 0.000053042 0.000002708
      37
 0.000002429 0.000002371-0.000001119 0.000005112 0.000054349 0.000002680
      38
 0.000002557 0.000002524-0.000001268 0.000005811 0.000055322 0.000002695
      39
 0.000002651 0.000002637-0.000001412 0.000006609 0.000055884 0.000002718
      40
 0.000002708 0.000002706-0.000001526 0.000007272 0.000056171 0.000002701
      41
 0.000002728 0.000002728-0.000001571 0.000002587 0.000002587 0.000061307
      42
 0.000002703 0.000002711-0.000001525 0.000002340 0.000050119 0.000013662
      43
 0.000002635 0.000002663-0.000001417 0.000001979 0.000047725 0.000015334
      44
 0.000002528 0.000002586-0.000001319 0.000001577 0.000043312 0.000018402
      45
 0.000002388 0.000002487-0.000001289 0.000001201 0.000037069 0.000022687
      46
 0.000002223 0.000002373-0.000001346 0.000000883 0.000029082 0.000028147
      47
 0.000002041 0.000002251-0.000001476 0.000000631 0.000020291 0.000033902
      48
 0.000001852 0.000002127-0.000001651 0.000000440 0.000012671 0.000038065
      49
 0.000001663 0.000002008-0.000001839 0.000000301 0.000007607 0.000039351
      50
 0.000001482 0.000001900-0.000002014 0.000000208 0.000004841 0.000038131
      51
 0.000001314 0.000001805-0.000002151 0.000000154 0.000003469 0.000035424
      52
 0.000001165 0.000001726-0.000002236 0.000000132 0.000002806 0.000032030
      53
 0.000001037 0.000001665-0.000002262 0.000000136 0.000002488 0.000028424
      54
 0.000000931 0.000001621-0.000002229 0.000000160 0.000002342 0.000024879
      55
 0.000000846 0.000001592-0.000002147 0.000000197 0.000002296 0.000021555
      56
 0.000000782 0.000001575-0.000002030 0.000000241 0.000002325 0.000018556
      57
 0.000000734 0.000001568-0.000001897 0.000000287 0.000002419 0.000015951
      58
 0.000000702 0.000001567-0.000001766 0.000000329 0.000002571 0.000013800
      59
 0.000000681 0.000001569-0.000001657 0.000000362 0.000002754 0.000012164
      60
 0.000000669-0.000001585 0.000001571 0.000000383 0.000002913 0.000011123
      61
 0.000000666-0.000001560 0.000001572 0.000000390 0.000002978 0.000010762
      62
 0.000000679-0.000001531 0.000001521 0.000001526 0.000001882 0.000010754
      63
 0.000000700-0.000001453 0.000001391 0.000001770 0.000001755 0.000010745
      64
 0.000000701-0.000001342 0.000001219 0.000001900 0.000010779 0.000001818
      65
 0.000000668-0.000001221 0.000001031 0.000001959 0.000010919 0.000002027
      66
 0.000000605-0.000001116 0.000000842 0.000001949 0.000011232 0.000002370
      67
 0.000000521-0.000001045 0.000000661 0.000001878 0.000011784 0.000002835
      68
 0.000000426-0.000001018 0.000000495 0.000001758 0.000012619 0.000003398
      69
 0.000000330-0.000001034 0.000000350 0.000001610 0.000013760 0.000004028
      70
 0.000000241-0.000001081 0.000000231 0.000001459 0.000015205 0.000004700
      71
 0.000000163-0.000001139 0.000000139 0.000001325 0.000016931 0.000005402
      72
 0.000000100-0.000001184 0.000000073 0.000001226 0.000018903 0.000006141
      73
 0.000000054-0.000001193 0.000000031 0.000001171 0.000021084 0.000006960
      74
 0.000000023-0.000001149 0.000000008 0.000001160 0.000023445 0.000007933
      75
 0.000000004-0.000001048-0.000000001 0.000001184 0.000025982 0.000009170
      76
-0.000000004-0.000000893 0.000001229-0.000000002 0.000028711 0.000010805
      77
-0.000000006-0.000000701 0.000001277 0.000000002 0.000031672 0.000012988
      78
-0.000000005-0.000000494 0.000001311 0.000000005 0.000034918 0.000015861
      79
-0.000000002-0.000000293 0.000001316 0.000000007 0.000038503 0.000019544
      80
 0.000000001-0.000000117 0.000001283 0.000000006 0.000042466 0.000024108
      81
 0.000000002 0.000000022 0.000001208 0.000000002 0.000046817 0.000029562
      82
 0.000000002 0.000000117 0.000001095-0.000000004 0.000051525 0.000035834
      83
 0.000000001 0.000000171 0.000000951-0.000000009 0.000056509 0.000042770
      84
-0.000000000 0.000000188 0.000000787-0.000000013 0.000061642 0.000050131
      85
-0.000000001 0.000000177 0.000000616-0.000000015 0.000066748 0.000057609
      86
-0.000000002 0.000000147 0.000000449-0.000000015 0.000071618 0.000064845
      87
-0.000000002 0.000000108 0.000000298-0.000000012 0.000076026 0.000071456
      88
-0.000000002 0.000000067 0.000000172-0.000000008 0.000079745 0.000077067
      89
-0.000000001 0.000000032 0.000000078-0.000000004 0.000082569 0.000081344
      90
-0.000000000 0.000000008 0.000000020-0.000000001 0.000084334 0.000084023
      91
-0.000000000 0.000000000 0.000000000-0.000000000 0.000084935 0.000084935
 Broadening   0.1600
       1
 0.000000000 0.000000000 0.000000000-0.000000001 0.000088801 0.000088801
       2
 0.000000001 0.000000008 0.000000020-0.000000001 0.000088446 0.000088189
       3
 0.000000004 0.000000030 0.000000078-0.000000002 0.000087398 0.000086378
       4
 0.000000008 0.000000066 0.000000171-0.000000004 0.000085705 0.000083440
       5
 0.000000013 0.000000114 0.000000295-0.000000004 0.000083442 0.000079491
       6
 0.000000018 0.000000169 0.000000442-0.000000005 0.000080709 0.000074684
       7
 0.000000023 0.000000229 0.000000606-0.000000003 0.000077621 0.000069201
       8
 0.000000027 0.000000289 0.000000779-0.000000000 0.000074304 0.000063241
       9
 0.000000029 0.000000345 0.000000953 0.000000005 0.000070887 0.000057009
      10
 0.000000030 0.000000392 0.000001122 0.000000012 0.000067492 0.000050710
      11
 0.000000028 0.000000427 0.000001280 0.000000021 0.000064232 0.000044531
      12
 0.000000024 0.000000447 0.000001422 0.000000031 0.000061202 0.000038639
      13
 0.000000020 0.000000449 0.000001544 0.000000041 0.000058474 0.000033169
      14
 0.000000016 0.000000432 0.000001646 0.000000052 0.000056099 0.000028225
      15
 0.000000014 0.000000398 0.000001727 0.000000063 0.000054102 0.000023871
      16
 0.000000018 0.000000347 0.000001792 0.000000075 0.000052484 0.000020136
      17
 0.000000030 0.000000282 0.000001844 0.000000088 0.000051226 0.000017016
      18
 0.000000054 0.000000208 0.000001893 0.000000104 0.000050291 0.000014478
      19
 0.000000094 0.000000128 0.000001946 0.000000128 0.000049629 0.000012464
      20
 0.000000155 0.000000046 0.000002014 0.000000161 0.000049186 0.000010904
      21
 0.000000240-0.000000034 0.000000209 0.000002105 0.000048907 0.000009715
      22
 0.000000354-0.000000110 0.000000276 0.000002225 0.000048743 0.000008815
      23
 0.000000499-0.000000182 0.000000369 0.000002375 0.000048659 0.000008126
      24
 0.000000679-0.000000248 0.000000492 0.000002548 0.000048633 0.000007579
      25
 0.000000893-0.000000310 0.000000650 0.000002733 0.000048661 0.000007118
      26
 0.000001141-0.000000370 0.000000846 0.000002915 0.000048753 0.000006701
      27
 0.000001423 0.000001082-0.000000431 0.000003079 0.000048928 0.000006299
      28
 0.000001733 0.000001357-0.000000496 0.000003212 0.000049209 0.000005900
      29
 0.000002068 0.000001671-0.000000567 0.000003312 0.000049613 0.000005499
      30
 0.000002420 0.000002017-0.000000646 0.000003384 0.000050149 0.000005103
      31
 0.000002782 0.000002388-0.000000735 0.000003442 0.000050812 0.000004720
      32
 0.000003144 0.000002776-0.000000835 0.000003510 0.000051586 0.000004364
      33
 0.000003498 0.000003169-0.000000945 0.000003615 0.000052435 0.000004044
      34
 0.000003834 0.000003554-0.000001066 0.000003787 0.000053314 0.000003770
      35
 0.000004142 0.000003920-0.000001196 0.000004056 0.000054164 0.000003546
      36
 0.000004415 0.000004252-0.000001334 0.000004449 0.000054915 0.000003370
      37
 0.000004646 0.000004540-0.000001478 0.000004988 0.000055495 0.000003238
      38
 0.000004829 0.000004772-0.000001623 0.000005683 0.000055832 0.000003136
      39
 0.000004962 0.000004941-0.000001757 0.000006512 0.000055886 0.000003042
      40
 0.000005042 0.000005042-0.000001858 0.000007247 0.000055815 0.000002925
      41
 0.000005072 0.000005072-0.000001897 0.000002744 0.000002744 0.000060701
      42
 0.000005032 0.000005054-0.000001858 0.000002477 0.000049619 0.000013871
      43
 0.000004927 0.000004994-0.000001767 0.000002146 0.000047372 0.000015780
      44
 0.000004763 0.000004898-0.000001686 0.000001812 0.000043234 0.000019162
      45
 0.000004550 0.000004774-0.000001663 0.000001530 0.000037327 0.000023879
      46
 0.000004299 0.000004631-0.000001709 0.000001319 0.000029647 0.000029937
      47
 0.000004022 0.000004478-0.000001812 0.000001178 0.000021062 0.000036487
      48
 0.000003731 0.000004321-0.000001949 0.000001096 0.000013548 0.000041591
      49
 0.000003438 0.000004169-0.000002093 0.000001059 0.000008561 0.000043847
      50
 0.000003153 0.000004029-0.000002224 0.000001058 0.000005890 0.000043534
      51
 0.000002885 0.000003903-0.000002326 0.000001082 0.000004640 0.000041626
      52
 0.000002641 0.000003796-0.000002387 0.000001124 0.000004122 0.000038903
      53
 0.000002427 0.000003709-0.000002403 0.000001178 0.000003963 0.000035830
      54
 0.000002243 0.000003641-0.000002376 0.000001238 0.000003990 0.000032675
      55
 0.000002091 0.000003591-0.000002313 0.000001300 0.000004128 0.000029606
      56
 0.000001969 0.000003557-0.000002225 0.000001359 0.000004346 0.000026742
      57
 0.000001875 0.000003536-0.000002125 0.000001411 0.000004627 0.000024178
      58
 0.000001806 0.000003523-0.000002028 0.000001455 0.000004947 0.000022009
      59
 0.000001760 0.000003517-0.000001947 0.000001488 0.000005261 0.000020332
      60
 0.000001733-0.000001894 0.000003514 0.000001509 0.000005500 0.000019259
      61
 0.000001724-0.000001876 0.000003513 0.000001515 0.000005590 0.000018888
      62
 0.000001754-0.000001848 0.000003411 0.000003073 0.000004087 0.000018910
      63
 0.000001805-0.000001771 0.000003149 0.000003243 0.000004080 0.000018986
      64
 0.000001815-0.000001660 0.000002805 0.000003284 0.000019150 0.000004304
      65
 0.000001756-0.000001534 0.000002427 0.000003274 0.000019450 0.000004670
      66
 0.000001631-0.000001416 0.000002044 0.000003223 0.000019937 0.000005158
      67
 0.000001457-0.000001322 0.000001671 0.000003133 0.000020661 0.000005754
      68
 0.000001250-0.000001261 0.000001322 0.000003008 0.000021658 0.000006444
      69
 0.000001030-0.000001235 0.000001008 0.000002861 0.000022946 0.000007212
      70
 0.000000814-0.000001232 0.000000736 0.000002703 0.000024527 0.000008052
      71
 0.000000612-0.000001238 0.000000513 0.000002550 0.000026386 0.000008970
      72
 0.000000437-0.000001233 0.000000338 0.000002413 0.000028497 0.000009992
      73
 0.000000291-0.000001198 0.000000209 0.000002300 0.000030829 0.000011167
      74
 0.000000179-0.000001120 0.000000121 0.000002211 0.000033361 0.000012572
      75
 0.000000098-0.000000993 0.000000065 0.000002145 0.000036078 0.000014301
      76
 0.000000045-0.000000824 0.000002092 0.000000034 0.000038983 0.000016466
      77
 0.000000015-0.000000626 0.000002041 0.000000020 0.000042090 0.000019181
      78
 0.000000003-0.000000417 0.000001979 0.000000015 0.000045420 0.000022547
      79
 0.000000002-0.000000218 0.000001896 0.000000014 0.000048993 0.000026639
      80
 0.000000007-0.000000044 0.000001784 0.000000014 0.000052814 0.000031490
      81
 0.000000015 0.000000092 0.000001639 0.000000013 0.000056872 0.000037075
      82
 0.000000022 0.000000184 0.000001461 0.000000010 0.000061123 0.000043306
      83
 0.000000027 0.000000233 0.000001258 0.000000005 0.000065496 0.000050025
      84
 0.000000028 0.000000243 0.000001037 0.000000001 0.000069883 0.000057011
      85
 0.000000026 0.000000224 0.000000811-0.000000002 0.000074154 0.000063991
      86
 0.000000022 0.000000184 0.000000593-0.000000004 0.000078153 0.000070654
      87
 0.000000016 0.000000134 0.000000396-0.000000005 0.000081720 0.000076677
      88
 0.000000010 0.000000083 0.000000230-0.000000004 0.000084695 0.000081748
      89
 0.000000005 0.000000039 0.000000104-0.000000003 0.000086935 0.000085589
      90
 0.000000001 0.000000010 0.000000026-0.000000001 0.000088328 0.000087986
      91
 0.000000000 0.000000000 0.000000000-0.000000001 0.000088801 0.000088801
 Broadening   0.1800
       1
-0.000000000 0.000000000 0.000000000-0.000000006 0.000091600 0.000091600
       2
 0.000000002 0.000000008 0.000000023-0.000000006 0.000091314 0.000091059
       3
 0.000000008 0.000000031 0.000000090-0.000000005 0.000090468 0.000089457
       4
 0.000000018 0.000000067 0.000000199-0.000000003 0.000089096 0.000086851
       5
 0.000000029 0.000000115 0.000000344 0.000000000 0.000087251 0.000083333
       6
 0.000000041 0.000000172 0.000000518 0.000000005 0.000085005 0.000079024
       7
 0.000000052 0.000000234 0.000000715 0.000000011 0.000082442 0.000074072
       8
 0.000000061 0.000000297 0.000000925 0.000000019 0.000079654 0.000068637
       9
 0.000000067 0.000000356 0.000001142 0.000000028 0.000076738 0.000062889
      10
 0.000000070 0.000000407 0.000001358 0.000000040 0.000073786 0.000056997
      11
 0.000000070 0.000000446 0.000001565 0.000000054 0.000070889 0.000051122
      12
 0.000000070 0.000000469 0.000001760 0.000000071 0.000068123 0.000045409
      13
 0.000000071 0.000000475 0.000001938 0.000000090 0.000065553 0.000039981
      14
 0.000000077 0.000000462 0.000002096 0.000000114 0.000063228 0.000034939
      15
 0.000000094 0.000000431 0.000002235 0.000000143 0.000061180 0.000030353
      16
 0.000000126 0.000000382 0.000002356 0.000000180 0.000059424 0.000026266
      17
 0.000000180 0.000000319 0.000002461 0.000000227 0.000057959 0.000022695
      18
 0.000000261 0.000000244 0.000002556 0.000000288 0.000056770 0.000019632
      19
 0.000000376 0.000000162 0.000002645 0.000000368 0.000055832 0.000017049
      20
 0.000000530 0.000000076 0.000002735 0.000000472 0.000055111 0.000014903
      21
 0.000000727-0.000000012 0.000000605 0.000002831 0.000054570 0.000013140
      22
 0.000000971-0.000000098 0.000000773 0.000002938 0.000054173 0.000011702
      23
 0.000001263-0.000000182 0.000000981 0.000003055 0.000053886 0.000010529
      24
 0.000001602-0.000000264 0.000001232 0.000003180 0.000053688 0.000009565
      25
 0.000001988-0.000000344 0.000001532 0.000003305 0.000053562 0.000008761
      26
 0.000002415-0.000000425 0.000001880 0.000003422 0.000053503 0.000008076
      27
 0.000002877 0.000002276-0.000000508 0.000003521 0.000053512 0.000007477
      28
 0.000003366 0.000002718-0.000000595 0.000003596 0.000053592 0.000006940
      29
 0.000003872 0.000003199-0.000000690 0.000003646 0.000053748 0.000006451
      30
 0.000004386 0.000003712-0.000000793 0.000003678 0.000053977 0.000006000
      31
 0.000004896 0.000004247-0.000000904 0.000003707 0.000054272 0.000005584
      32
 0.000005391 0.000004790-0.000001024 0.000003753 0.000054618 0.000005202
      33
 0.000005860 0.000005328-0.000001153 0.000003841 0.000054992 0.000004855
      34
 0.000006291 0.000005845-0.000001289 0.000003999 0.000055363 0.000004544
      35
 0.000006678 0.000006327-0.000001430 0.000004257 0.000055692 0.000004270
      36
 0.000007012 0.000006758-0.000001575 0.000004640 0.000055937 0.000004033
      37
 0.000007288 0.000007126-0.000001722 0.000005172 0.000056048 0.000003829
      38
 0.000007504 0.000007420-0.000001865 0.000005867 0.000055981 0.000003650
      39
 0.000007657 0.000007631-0.000001996 0.000006704 0.000055717 0.000003485
      40
 0.000007751 0.000007754-0.000002093 0.000007466 0.000055428 0.000003310
      41
 0.000007788 0.000007788-0.000002131 0.000003095 0.000003095 0.000060131
      42
 0.000007735 0.000007773-0.000002093 0.000002820 0.000049222 0.000014148
      43
 0.000007601 0.000007714-0.000002003 0.000002510 0.000047110 0.000016173
      44
 0.000007394 0.000007618-0.000001917 0.000002220 0.000043211 0.000019721
      45
 0.000007126 0.000007494-0.000001879 0.000001999 0.000037600 0.000024691
      46
 0.000006809 0.000007350-0.000001901 0.000001861 0.000030210 0.000031133
      47
 0.000006459 0.000007195-0.000001971 0.000001800 0.000021849 0.000038236
      48
 0.000006089 0.000007037-0.000002070 0.000001802 0.000014484 0.000044045
      49
 0.000005712 0.000006883-0.000002177 0.000001850 0.000009619 0.000047080
      50
 0.000005343 0.000006737-0.000002276 0.000001931 0.000007091 0.000047545
      51
 0.000004991 0.000006605-0.000002354 0.000002034 0.000006017 0.000046376
      52
 0.000004665 0.000006488-0.000002404 0.000002149 0.000005702 0.000044329
      53
 0.000004372 0.000006390-0.000002422 0.000002269 0.000005766 0.000041859
      54
 0.000004115 0.000006309-0.000002410 0.000002387 0.000006023 0.000039226
      55
 0.000003897 0.000006245-0.000002373 0.000002498 0.000006386 0.000036598
      56
 0.000003717 0.000006196-0.000002319 0.000002598 0.000006811 0.000034098
      57
 0.000003574 0.000006160-0.000002255 0.000002684 0.000007263 0.000031834
      58
 0.000003466 0.000006135-0.000002193 0.000002754 0.000007701 0.000029912
      59
 0.000003391 0.000006119-0.000002141 0.000002804 0.000008072 0.000028441
      60
 0.000003347-0.000002107 0.000006110 0.000002835 0.000008318 0.000027517
      61
 0.000003333-0.000002095 0.000006108 0.000002846 0.000008404 0.000027203
      62
 0.000003385-0.000002069 0.000005947 0.000004819 0.000006493 0.000027246
      63
 0.000003478-0.000001997 0.000005537 0.000004902 0.000006597 0.000027385
      64
 0.000003509-0.000001890 0.000004997 0.000004833 0.000027641 0.000006970
      65
 0.000003433-0.000001765 0.000004405 0.000004730 0.000028046 0.000007480
      66
 0.000003248-0.000001639 0.000003800 0.000004611 0.000028636 0.000008101
      67
 0.000002975-0.000001526 0.000003207 0.000004476 0.000029444 0.000008820
      68
 0.000002640-0.000001435 0.000002642 0.000004325 0.000030494 0.000009630
      69
 0.000002270-0.000001366 0.000002123 0.000004160 0.000031801 0.000010531
      70
 0.000001890-0.000001312 0.000001660 0.000003987 0.000033365 0.000011532
      71
 0.000001523-0.000001263 0.000001262 0.000003812 0.000035177 0.000012654
      72
 0.000001185-0.000001203 0.000000933 0.000003639 0.000037223 0.000013935
      73
 0.000000888-0.000001121 0.000000670 0.000003472 0.000039484 0.000015431
      74
 0.000000640-0.000001006 0.000000470 0.000003312 0.000041943 0.000017212
      75
 0.000000444-0.000000857 0.000000325 0.000003159 0.000044593 0.000019359
      76
 0.000000296-0.000000680 0.000003007 0.000000223 0.000047429 0.000021961
      77
 0.000000194-0.000000486 0.000002850 0.000000156 0.000050454 0.000025097
      78
 0.000000128-0.000000291 0.000002681 0.000000113 0.000053671 0.000028834
      79
 0.000000091-0.000000111 0.000002493 0.000000085 0.000057079 0.000033209
      80
 0.000000074 0.000000041 0.000002282 0.000000068 0.000060665 0.000038221
      81
 0.000000069 0.000000156 0.000002047 0.000000055 0.000064399 0.000043820
      82
 0.000000070 0.000000230 0.000001790 0.000000044 0.000068232 0.000049906
      83
 0.000000070 0.000000264 0.000001516 0.000000034 0.000072094 0.000056324
      84
 0.000000067 0.000000264 0.000001234 0.000000025 0.000075896 0.000062873
      85
 0.000000061 0.000000237 0.000000956 0.000000016 0.000079532 0.000069314
      86
 0.000000050 0.000000191 0.000000694 0.000000009 0.000082885 0.000075383
      87
 0.000000037 0.000000137 0.000000460 0.000000003 0.000085837 0.000080812
      88
 0.000000023 0.000000084 0.000000266-0.000000002 0.000088273 0.000085345
      89
 0.000000011 0.000000040 0.000000121-0.000000004 0.000090093 0.000088758
      90
 0.000000003 0.000000010 0.000000030-0.000000006 0.000091219 0.000090880
      91
-0.000000000 0.000000000 0.000000000-0.000000006 0.000091600 0.000091600
 Broadening   0.2000
       1
 0.000000000-0.000000000 0.000000000-0.000000026 0.000093492 0.000093492
       2
 0.000000003 0.000000007 0.000000025-0.000000025 0.000093254 0.000093018
       3
 0.000000012 0.000000029 0.000000099-0.000000021 0.000092548 0.000091614
       4
 0.000000026 0.000000063 0.000000219-0.000000015 0.000091400 0.000089323
       5
 0.000000044 0.000000109 0.000000380-0.000000005 0.000089848 0.000086216
       6
 0.000000064 0.000000163 0.000000576 0.000000007 0.000087945 0.000082390
       7
 0.000000084 0.000000224 0.000000801 0.000000023 0.000085754 0.000077958
       8
 0.000000104 0.000000286 0.000001046 0.000000041 0.000083344 0.000073051
       9
 0.000000124 0.000000346 0.000001305 0.000000064 0.000080788 0.000067803
      10
 0.000000142 0.000000400 0.000001569 0.000000090 0.000078162 0.000062355
      11
 0.000000163 0.000000443 0.000001831 0.000000122 0.000075536 0.000056840
      12
 0.000000188 0.000000473 0.000002085 0.000000161 0.000072975 0.000051384
      13
 0.000000223 0.000000487 0.000002327 0.000000208 0.000070537 0.000046097
      14
 0.000000272 0.000000483 0.000002550 0.000000266 0.000068268 0.000041073
      15
 0.000000343 0.000000462 0.000002754 0.000000338 0.000066203 0.000036386
      16
 0.000000443 0.000000423 0.000002937 0.000000427 0.000064365 0.000032087
      17
 0.000000580 0.000000369 0.000003098 0.000000538 0.000062764 0.000028208
      18
 0.000000760 0.000000301 0.000003238 0.000000675 0.000061400 0.000024762
      19
 0.000000990 0.000000223 0.000003361 0.000000844 0.000060262 0.000021741
      20
 0.000001275 0.000000138 0.000003468 0.000001051 0.000059331 0.000019128
      21
 0.000001618 0.000000048 0.000001300 0.000003565 0.000058581 0.000016891
      22
 0.000002021-0.000000044 0.000001596 0.000003655 0.000057987 0.000014992
      23
 0.000002482-0.000000138 0.000001943 0.000003739 0.000057519 0.000013388
      24
 0.000002998-0.000000233 0.000002344 0.000003818 0.000057155 0.000012038
      25
 0.000003562-0.000000328 0.000002800 0.000003891 0.000056874 0.000010898
      26
 0.000004166-0.000000426 0.000003309 0.000003953 0.000056662 0.000009932
      27
 0.000004800 0.000003868-0.000000528 0.000004001 0.000056510 0.000009105
      28
 0.000005451 0.000004471-0.000000634 0.000004033 0.000056413 0.000008389
      29
 0.000006107 0.000005110-0.000000746 0.000004052 0.000056365 0.000007762
      30
 0.000006754 0.000005773-0.000000865 0.000004066 0.000056360 0.000007206
      31
 0.000007379 0.000006447-0.000000991 0.000004087 0.000056387 0.000006708
      32
 0.000007971 0.000007119-0.000001124 0.000004134 0.000056436 0.000006258
      33
 0.000008517 0.000007772-0.000001263 0.000004229 0.000056487 0.000005851
      34
 0.000009008 0.000008389-0.000001407 0.000004398 0.000056521 0.000005481
      35
 0.000009438 0.000008956-0.000001555 0.000004665 0.000056512 0.000005147
      36
 0.000009802 0.000009456-0.000001706 0.000005057 0.000056431 0.000004846
      37
 0.000010096 0.000009878-0.000001856 0.000005594 0.000056245 0.000004578
      38
 0.000010322 0.000010211-0.000002004 0.000006291 0.000055925 0.000004339
      39
 0.000010481 0.000010447-0.000002137 0.000007132 0.000055465 0.000004120
      40
 0.000010578 0.000010583-0.000002239 0.000007907 0.000055048 0.000003903
      41
 0.000010618 0.000010618-0.000002278 0.000003659 0.000003659 0.000059599
      42
 0.000010556 0.000010609-0.000002237 0.000003371 0.000048909 0.000014566
      43
 0.000010404 0.000010559-0.000002137 0.000003060 0.000046917 0.000016652
      44
 0.000010170 0.000010475-0.000002032 0.000002784 0.000043225 0.000020285
      45
 0.000009868 0.000010367-0.000001969 0.000002590 0.000037876 0.000025394
      46
 0.000009512 0.000010242-0.000001962 0.000002493 0.000030765 0.000032062
      47
 0.000009116 0.000010107-0.000002000 0.000002484 0.000022652 0.000039517
      48
 0.000008696 0.000009969-0.000002066 0.000002546 0.000015483 0.000045809
      49
 0.000008266 0.000009834-0.000002145 0.000002661 0.000010789 0.000049418
      50
 0.000007840 0.000009705-0.000002221 0.000002813 0.000008436 0.000050495
      51
 0.000007431 0.000009586-0.000002285 0.000002990 0.000007558 0.000049940
      52
 0.000007047 0.000009479-0.000002331 0.000003179 0.000007458 0.000048489
      53
 0.000006696 0.000009386-0.000002357 0.000003370 0.000007747 0.000046584
      54
 0.000006384 0.000009306-0.000002364 0.000003557 0.000008229 0.000044478
      55
 0.000006114 0.000009239-0.000002353 0.000003731 0.000008801 0.000042332
      56
 0.000005887 0.000009185-0.000002330 0.000003888 0.000009404 0.000040268
      57
 0.000005703 0.000009143-0.000002299 0.000004022 0.000009985 0.000038398
      58
 0.000005563 0.000009112-0.000002268 0.000004130 0.000010489 0.000036830
      59
 0.000005463 0.000009090-0.000002241 0.000004209 0.000010861 0.000035664
      60
 0.000005404-0.000002223 0.000009078 0.000004257 0.000011071 0.000034964
      61
 0.000005385-0.000002217 0.000009074 0.000004274 0.000011133 0.000034735
      62
 0.000005461-0.000002194 0.000008858 0.000006610 0.000008863 0.000034791
      63
 0.000005602-0.000002127 0.000008305 0.000006611 0.000009061 0.000034964
      64
 0.000005667-0.000002026 0.000007580 0.000006433 0.000035268 0.000009561
      65
 0.000005587-0.000001904 0.000006785 0.000006232 0.000035722 0.000010201
      66
 0.000005356-0.000001774 0.000005969 0.000006031 0.000036349 0.000010945
      67
 0.000004997-0.000001647 0.000005163 0.000005834 0.000037168 0.000011787
      68
 0.000004542-0.000001531 0.000004386 0.000005636 0.000038194 0.000012727
      69
 0.000004025-0.000001425 0.000003658 0.000005435 0.000039438 0.000013774
      70
 0.000003478-0.000001327 0.000002994 0.000005229 0.000040900 0.000014951
      71
 0.000002930-0.000001229 0.000002406 0.000005018 0.000042578 0.000016288
      72
 0.000002408-0.000001122 0.000001898 0.000004802 0.000044465 0.000017829
      73
 0.000001929-0.000000997 0.000001473 0.000004580 0.000046553 0.000019629
      74
 0.000001507-0.000000851 0.000001127 0.000004352 0.000048835 0.000021750
      75
 0.000001151-0.000000685 0.000000854 0.000004116 0.000051307 0.000024258
      76
 0.000000861-0.000000506 0.000003871 0.000000642 0.000053968 0.000027217
      77
 0.000000636-0.000000323 0.000003614 0.000000483 0.000056814 0.000030679
      78
 0.000000468-0.000000149 0.000003341 0.000000365 0.000059840 0.000034678
      79
 0.000000349 0.000000004 0.000003051 0.000000277 0.000063031 0.000039221
      80
 0.000000268 0.000000127 0.000002743 0.000000212 0.000066361 0.000044281
      81
 0.000000213 0.000000215 0.000002418 0.000000161 0.000069793 0.000049793
      82
 0.000000177 0.000000265 0.000002080 0.000000122 0.000073271 0.000055648
      83
 0.000000149 0.000000282 0.000001737 0.000000089 0.000076728 0.000061702
      84
 0.000000126 0.000000268 0.000001397 0.000000061 0.000080085 0.000067773
      85
 0.000000103 0.000000233 0.000001071 0.000000038 0.000083253 0.000073655
      86
 0.000000080 0.000000185 0.000000771 0.000000018 0.000086139 0.000079131
      87
 0.000000056 0.000000131 0.000000508 0.000000002 0.000088653 0.000083979
      88
 0.000000034 0.000000079 0.000000292-0.000000011 0.000090709 0.000087994
      89
 0.000000016 0.000000037 0.000000132-0.000000019 0.000092235 0.000091000
      90
 0.000000004 0.000000010 0.000000033-0.000000025 0.000093174 0.000092861
      91
 0.000000000-0.000000000 0.000000000-0.000000026 0.000093492 0.000093492
 
     MATDYN       :      0.07s CPU      0.09s WALL

 
   This run was terminated on:   7:47:41   6Feb2022            

=------------------------------------------------------------------------------=
   JOB DONE.
=------------------------------------------------------------------------------=
