
     Program PHONON v.7.0 starts on  6Feb2022 at  7:38:51 

     This program is part of the open-source Quantum ESPRESSO suite
     for quantum simulation of materials; please cite
         "P. Giannozzi et al., J. Phys.:Condens. Matter 21 395502 (2009);
         "P. Giannozzi et al., J. Phys.:Condens. Matter 29 465901 (2017);
         "P. Giannozzi et al., J. Chem. Phys. 152 154105 (2020);
          URL http://www.quantum-espresso.org", 
     in publications or presentations arising from this work. More details at
     http://www.quantum-espresso.org/quote

     Parallel version (MPI), running on     4 processors

     MPI processes distributed on     1 nodes
     R & G space division:  proc/nbgrp/npool/nimage =       4
     20566 MiB available memory on the printing compute node when the environment starts
 
     Waiting for input...
     Reading input from standard input

     Reading xml data from directory:

     ../tmp/gr.save/

     IMPORTANT: XC functional enforced from input :
     Exchange-correlation= PBE
                           (   1   4   3   4   0   0   0)
     Any further DFT definition will be discarded
     Please, verify this is what you really want

 
     Parallelization info
     --------------------
     sticks:   dense  smooth     PW     G-vecs:    dense   smooth      PW
     Min         118     118     37                12812    12812    2155
     Max         119     119     38                12835    12835    2162
     Sum         475     475    151                51311    51311    8639
 
     Using Slab Decomposition
 
 ----2D----2D----2D----2D----2D----2D----2D----2D----2D----2D----2D----2D
  The code is running with the 2D cutoff
  Please refer to:
  Sohier, T., Calandra, M., & Mauri, F. (2017), 
  Density functional perturbation theory for gated two-dimensional heterostructu
 res:
  Theoretical developments and application to flexural phonons in graphene.
  Physical Review B, 96(7), 75448. https://doi.org/10.1103/PhysRevB.96.075448
 ----2D----2D----2D----2D----2D----2D----2D----2D----2D----2D----2D----2D

     Check: negative core charge=   -0.000001

     negative rho (up, down):  2.304E-05 0.000E+00
     Reading collected, re-writing distributed wavefunctions


     Dynamical matrices for ( 6, 6, 1)  uniform grid of q-points
     (   7 q-points):
       N         xq(1)         xq(2)         xq(3) 
       1   0.000000000   0.000000000   0.000000000
       2   0.000000000   0.192450090   0.000000000
       3   0.000000000   0.384900179   0.000000000
       4   0.000000000  -0.577350269   0.000000000
       5   0.166666667   0.288675135   0.000000000
       6   0.166666667   0.481125224   0.000000000
       7   0.333333333   0.577350269   0.000000000

     Saving dvscf to file. Distribute only q points, not irreducible represetations.

     Calculation of q =    0.0000000   0.0000000   0.0000000

     phonon calc.                                                               

     bravais-lattice index     =            4
     lattice parameter (alat)  =       4.6561  a.u.
     unit-cell volume          =     532.1899 (a.u.)^3
     number of atoms/cell      =            2
     number of atomic types    =            1
     kinetic-energy cut-off    =      80.0000  Ry
     charge density cut-off    =     320.0000  Ry
     convergence threshold     =      1.0E-14
     beta                      =       0.7000
     number of iterations used =            4
     Exchange-correlation= PBE
                           (   1   4   3   4   0   0   0)


     celldm(1)=    4.65611  celldm(2)=    0.00000  celldm(3)=    6.08790
     celldm(4)=    0.00000  celldm(5)=    0.00000  celldm(6)=    0.00000

     crystal axes: (cart. coord. in units of alat)
               a(1) = (  1.0000  0.0000  0.0000 )  
               a(2) = ( -0.5000  0.8660  0.0000 )  
               a(3) = (  0.0000  0.0000  6.0879 )  

     reciprocal axes: (cart. coord. in units 2 pi/alat)
               b(1) = (  1.0000  0.5774  0.0000 )  
               b(2) = (  0.0000  1.1547  0.0000 )  
               b(3) = (  0.0000  0.0000  0.1643 )  


     Atoms inside the unit cell: 

     Cartesian axes

     site n.  atom      mass           positions (alat units)
        1     C   12.0107   tau(    1) = (    0.00000    0.57735    3.04395  )
        2     C   12.0107   tau(    2) = (    0.50000    0.28868    3.04395  )

     Computing dynamical matrix for 
                    q = (   0.0000000   0.0000000   0.0000000 )
 
     25 Sym.Ops. (with q -> -q+G )


     G cutoff =  175.7260  (  12829 G-vectors)     FFT grid: ( 27, 27,162)

     number of k points=    19  Marzari-Vanderbilt smearing, width (Ry)=  0.0200

     PseudoPot. # 1 for C  read from file:
     ../pseudo/C.pbe-n-rrkjus_psl.0.1.UPF
     MD5 check sum: 96a6a315177d77e6c95bf6fd3870f9e3
     Pseudo is Ultrasoft + core correction, Zval =  4.0
     Generated using &quot;atomic&quot; code by A. Dal Corso  v.6.3MaX
     Using radial grid of 1073 points,  4 beta functions with: 
                l(1) =   0
                l(2) =   0
                l(3) =   1
                l(4) =   1
     Q(r) pseudized with 0 coefficients 


     Mode symmetry, D_6h(6/mmm) point group:


     Atomic displacements:
     There are    4 irreducible representations

     Representation     1      1 modes -  To be done

     Representation     2      2 modes -  To be done

     Representation     3      1 modes -  To be done

     Representation     4      2 modes -  To be done



     Alpha used in Ewald sum =   2.8000

     negative rho (up, down):  2.304E-05 0.000E+00
     PHONON       :      0.65s CPU      0.68s WALL



     Representation #   1 mode #   1

     Self-consistent Calculation
 
     Pert. #  1: Fermi energy shift (Ry) =     1.4117E-22     0.0000E+00

      iter #   1 total cpu time :     1.1 secs   av.it.:   5.8
      thresh= 1.000E-02 alpha_mix =  0.700 |ddv_scf|^2 =  2.706E-07
 
     Pert. #  1: Fermi energy shift (Ry) =     5.6469E-22     0.0000E+00

      iter #   2 total cpu time :     1.6 secs   av.it.:  11.9
      thresh= 5.202E-05 alpha_mix =  0.700 |ddv_scf|^2 =  2.416E-08
 
     Pert. #  1: Fermi energy shift (Ry) =    -2.8234E-22     0.0000E+00

      iter #   3 total cpu time :     2.0 secs   av.it.:  10.4
      thresh= 1.554E-05 alpha_mix =  0.700 |ddv_scf|^2 =  5.584E-12
 
     Pert. #  1: Fermi energy shift (Ry) =    -2.8234E-22     0.0000E+00

      iter #   4 total cpu time :     2.6 secs   av.it.:  14.2
      thresh= 2.363E-07 alpha_mix =  0.700 |ddv_scf|^2 =  6.398E-14
 
     Pert. #  1: Fermi energy shift (Ry) =    -2.8234E-22     0.0000E+00

      iter #   5 total cpu time :     3.1 secs   av.it.:  12.1
      thresh= 2.529E-08 alpha_mix =  0.700 |ddv_scf|^2 =  7.925E-16

     End of self-consistent calculation

     Convergence has been achieved 


     Representation #   2 modes #   2   3

     Self-consistent Calculation
 
     Pert. #  1: Fermi energy shift (Ry) =     2.7105E-20    -6.2693E-38
     Pert. #  2: Fermi energy shift (Ry) =     1.2649E-19     5.4856E-38

      iter #   1 total cpu time :     4.1 secs   av.it.:   8.4
      thresh= 1.000E-02 alpha_mix =  0.700 |ddv_scf|^2 =  5.881E-08
 
     Pert. #  1: Fermi energy shift (Ry) =     9.8821E-22    -6.2693E-38
     Pert. #  2: Fermi energy shift (Ry) =     1.6941E-21     4.5061E-38

      iter #   2 total cpu time :     5.2 secs   av.it.:  15.8
      thresh= 2.425E-05 alpha_mix =  0.700 |ddv_scf|^2 =  2.763E-09
 
     Pert. #  1: Fermi energy shift (Ry) =     2.8234E-22    -7.8366E-38
     Pert. #  2: Fermi energy shift (Ry) =     1.1647E-21     5.4856E-38

      iter #   3 total cpu time :     6.2 secs   av.it.:  12.9
      thresh= 5.257E-06 alpha_mix =  0.700 |ddv_scf|^2 =  9.874E-11
 
     Pert. #  1: Fermi energy shift (Ry) =    -7.0586E-23    -7.8366E-38
     Pert. #  2: Fermi energy shift (Ry) =     9.8821E-22     5.4856E-38

      iter #   4 total cpu time :     7.3 secs   av.it.:  13.2
      thresh= 9.937E-07 alpha_mix =  0.700 |ddv_scf|^2 =  6.839E-15

     End of self-consistent calculation

     Convergence has been achieved 


     Representation #   3 mode #   4

     Self-consistent Calculation
 
     Pert. #  1: Fermi energy shift (Ry) =    -1.1294E-21     0.0000E+00

      iter #   1 total cpu time :     7.9 secs   av.it.:   9.0
      thresh= 1.000E-02 alpha_mix =  0.700 |ddv_scf|^2 =  2.771E-04
 
     Pert. #  1: Fermi energy shift (Ry) =     0.0000E+00     0.0000E+00

      iter #   2 total cpu time :     8.4 secs   av.it.:  12.4
      thresh= 1.665E-03 alpha_mix =  0.700 |ddv_scf|^2 =  4.540E-04
 
     Pert. #  1: Fermi energy shift (Ry) =     0.0000E+00     0.0000E+00

      iter #   3 total cpu time :     8.9 secs   av.it.:  11.1
      thresh= 2.131E-03 alpha_mix =  0.700 |ddv_scf|^2 =  2.337E-07
 
     Pert. #  1: Fermi energy shift (Ry) =     0.0000E+00     0.0000E+00

      iter #   4 total cpu time :     9.4 secs   av.it.:  11.2
      thresh= 4.834E-05 alpha_mix =  0.700 |ddv_scf|^2 =  6.896E-10
 
     Pert. #  1: Fermi energy shift (Ry) =    -5.6469E-22     0.0000E+00

      iter #   5 total cpu time :     9.8 secs   av.it.:  11.7
      thresh= 2.626E-06 alpha_mix =  0.700 |ddv_scf|^2 =  9.730E-11
 
     Pert. #  1: Fermi energy shift (Ry) =     0.0000E+00     0.0000E+00

      iter #   6 total cpu time :    10.3 secs   av.it.:  11.1
      thresh= 9.864E-07 alpha_mix =  0.700 |ddv_scf|^2 =  1.976E-13
 
     Pert. #  1: Fermi energy shift (Ry) =    -5.6469E-22     0.0000E+00

      iter #   7 total cpu time :    10.8 secs   av.it.:  11.9
      thresh= 4.445E-08 alpha_mix =  0.700 |ddv_scf|^2 =  3.559E-15

     End of self-consistent calculation

     Convergence has been achieved 


     Representation #   4 modes #   5   6

     Self-consistent Calculation
 
     Pert. #  1: Fermi energy shift (Ry) =    -2.1176E-22     2.8086E-35
     Pert. #  2: Fermi energy shift (Ry) =     0.0000E+00    -1.4043E-35

      iter #   1 total cpu time :    11.7 secs   av.it.:   7.9
      thresh= 1.000E-02 alpha_mix =  0.700 |ddv_scf|^2 =  3.262E-08
 
     Pert. #  1: Fermi energy shift (Ry) =     1.0588E-22    -1.0031E-36
     Pert. #  2: Fermi energy shift (Ry) =    -1.4117E-22     1.1598E-36

      iter #   2 total cpu time :    12.8 secs   av.it.:  14.9
      thresh= 1.806E-05 alpha_mix =  0.700 |ddv_scf|^2 =  2.544E-09
 
     Pert. #  1: Fermi energy shift (Ry) =     7.0586E-23    -7.5232E-37
     Pert. #  2: Fermi energy shift (Ry) =    -1.4117E-22     1.4106E-36

      iter #   3 total cpu time :    13.9 secs   av.it.:  13.4
      thresh= 5.044E-06 alpha_mix =  0.700 |ddv_scf|^2 =  8.957E-12
 
     Pert. #  1: Fermi energy shift (Ry) =     2.1176E-22    -7.5232E-37
     Pert. #  2: Fermi energy shift (Ry) =    -3.5293E-23     1.4106E-36

      iter #   4 total cpu time :    15.0 secs   av.it.:  14.6
      thresh= 2.993E-07 alpha_mix =  0.700 |ddv_scf|^2 =  9.570E-15

     End of self-consistent calculation

     Convergence has been achieved 
 
     Number of q in the star =    1
     List of q in the star:
          1   0.000000000   0.000000000   0.000000000

     Diagonalizing the dynamical matrix

     q = (    0.000000000   0.000000000   0.000000000 ) 

 **************************************************************************
     freq (    1) =       1.138365 [THz] =      37.971757 [cm-1]
     freq (    2) =       1.138365 [THz] =      37.971757 [cm-1]
     freq (    3) =       1.370646 [THz] =      45.719825 [cm-1]
     freq (    4) =      26.296775 [THz] =     877.166004 [cm-1]
     freq (    5) =      44.551556 [THz] =    1486.079947 [cm-1]
     freq (    6) =      44.551556 [THz] =    1486.079947 [cm-1]
 **************************************************************************

     Mode symmetry, D_6h(6/mmm) point group:

     freq (   1-   2) =         38.0  [cm-1]   --> E_1u            I  
     freq (   3-   3) =         45.7  [cm-1]   --> A_2u            I  
     freq (   4-   4) =        877.2  [cm-1]   --> B_1g               
     freq (   5-   6) =       1486.1  [cm-1]   --> E_2g            R  
     electron-phonon interaction  ...

     Gaussian Broadening:   0.020 Ry, ngauss=   0
     DOS =  0.122860 states/spin/Ry/Unit Cell at Ef= -4.238911 eV
     lambda(    1)=  0.3002   gamma=    0.05 GHz
     lambda(    2)=  0.1533   gamma=    0.02 GHz
     lambda(    3)=  0.0001   gamma=    0.00 GHz
     lambda(    4)=  0.0000   gamma=    0.00 GHz
     lambda(    5)=  1.3810   gamma=  321.60 GHz
     lambda(    6)=  1.3816   gamma=  321.72 GHz
     Gaussian Broadening:   0.040 Ry, ngauss=   0
     DOS =  0.242754 states/spin/Ry/Unit Cell at Ef= -4.244465 eV
     lambda(    1)=  2.5752   gamma=    0.77 GHz
     lambda(    2)=  1.3623   gamma=    0.41 GHz
     lambda(    3)=  0.0000   gamma=    0.00 GHz
     lambda(    4)=  0.0000   gamma=    0.00 GHz
     lambda(    5)=  0.4641   gamma=  213.56 GHz
     lambda(    6)=  0.4674   gamma=  215.06 GHz
     Gaussian Broadening:   0.060 Ry, ngauss=   0
     DOS =  0.390420 states/spin/Ry/Unit Cell at Ef= -4.259073 eV
     lambda(    1)=  2.6709   gamma=    1.29 GHz
     lambda(    2)=  1.6139   gamma=    0.78 GHz
     lambda(    3)=  0.0000   gamma=    0.00 GHz
     lambda(    4)=  0.0000   gamma=    0.00 GHz
     lambda(    5)=  0.2955   gamma=  218.71 GHz
     lambda(    6)=  0.2981   gamma=  220.58 GHz
     Gaussian Broadening:   0.080 Ry, ngauss=   0
     DOS =  0.575004 states/spin/Ry/Unit Cell at Ef= -4.286670 eV
     lambda(    1)=  2.6377   gamma=    1.88 GHz
     lambda(    2)=  1.8887   gamma=    1.34 GHz
     lambda(    3)=  0.0000   gamma=    0.00 GHz
     lambda(    4)=  0.0000   gamma=    0.00 GHz
     lambda(    5)=  0.2101   gamma=  228.93 GHz
     lambda(    6)=  0.2118   gamma=  230.87 GHz
     Gaussian Broadening:   0.100 Ry, ngauss=   0
     DOS =  0.776356 states/spin/Ry/Unit Cell at Ef= -4.312762 eV
     lambda(    1)=  2.9365   gamma=    2.82 GHz
     lambda(    2)=  2.4174   gamma=    2.32 GHz
     lambda(    3)=  0.0000   gamma=    0.00 GHz
     lambda(    4)=  0.0000   gamma=    0.00 GHz
     lambda(    5)=  0.1673   gamma=  246.13 GHz
     lambda(    6)=  0.1686   gamma=  248.04 GHz
     Gaussian Broadening:   0.120 Ry, ngauss=   0
     DOS =  0.971043 states/spin/Ry/Unit Cell at Ef= -4.328522 eV
     lambda(    1)=  3.4006   gamma=    4.09 GHz
     lambda(    2)=  3.0296   gamma=    3.64 GHz
     lambda(    3)=  0.0000   gamma=    0.00 GHz
     lambda(    4)=  0.0000   gamma=    0.00 GHz
     lambda(    5)=  0.1445   gamma=  266.00 GHz
     lambda(    6)=  0.1455   gamma=  267.80 GHz
     Gaussian Broadening:   0.140 Ry, ngauss=   0
     DOS =  1.149505 states/spin/Ry/Unit Cell at Ef= -4.334146 eV
     lambda(    1)=  3.7692   gamma=    5.36 GHz
     lambda(    2)=  3.4955   gamma=    4.97 GHz
     lambda(    3)=  0.0002   gamma=    0.00 GHz
     lambda(    4)=  0.0000   gamma=    0.00 GHz
     lambda(    5)=  0.1302   gamma=  283.74 GHz
     lambda(    6)=  0.1310   gamma=  285.44 GHz
     Gaussian Broadening:   0.160 Ry, ngauss=   0
     DOS =  1.312227 states/spin/Ry/Unit Cell at Ef= -4.332440 eV
     lambda(    1)=  3.9478   gamma=    6.41 GHz
     lambda(    2)=  3.7411   gamma=    6.07 GHz
     lambda(    3)=  0.0016   gamma=    0.00 GHz
     lambda(    4)=  0.0000   gamma=    0.00 GHz
     lambda(    5)=  0.1196   gamma=  297.58 GHz
     lambda(    6)=  0.1203   gamma=  299.18 GHz
     Gaussian Broadening:   0.180 Ry, ngauss=   0
     DOS =  1.463004 states/spin/Ry/Unit Cell at Ef= -4.326204 eV
     lambda(    1)=  3.9533   gamma=    7.16 GHz
     lambda(    2)=  3.7942   gamma=    6.87 GHz
     lambda(    3)=  0.0099   gamma=    0.03 GHz
     lambda(    4)=  0.0000   gamma=    0.00 GHz
     lambda(    5)=  0.1109   gamma=  307.60 GHz
     lambda(    6)=  0.1115   gamma=  309.12 GHz
     Gaussian Broadening:   0.200 Ry, ngauss=   0
     DOS =  1.605645 states/spin/Ry/Unit Cell at Ef= -4.317604 eV
     lambda(    1)=  3.8366   gamma=    7.62 GHz
     lambda(    2)=  3.7124   gamma=    7.38 GHz
     lambda(    3)=  0.0413   gamma=    0.12 GHz
     lambda(    4)=  0.0000   gamma=    0.03 GHz
     lambda(    5)=  0.1033   gamma=  314.36 GHz
     lambda(    6)=  0.1038   gamma=  315.79 GHz
 
 
     Number of q in the star =    1
     List of q in the star:
          1   0.000000000   0.000000000   0.000000000

     Calculation of q =    0.0000000   0.1924501   0.0000000

     Subspace diagonalization in iterative solution of the eigenvalue problem:
     a serial algorithm will be used

 
     Parallelization info
     --------------------
     sticks:   dense  smooth     PW     G-vecs:    dense   smooth      PW
     Min         118     118     37                12812    12812    2295
     Max         119     119     38                12835    12835    2316
     Sum         475     475    151                51311    51311    9241
 
     Using Slab Decomposition
 

     Title: 
     phonon calc.                                                               


     bravais-lattice index     =            4
     lattice parameter (alat)  =       4.6561  a.u.
     unit-cell volume          =     532.1899 (a.u.)^3
     number of atoms/cell      =            2
     number of atomic types    =            1
     number of electrons       =         8.00
     number of Kohn-Sham states=            8
     kinetic-energy cutoff     =      80.0000  Ry
     charge density cutoff     =     320.0000  Ry
     Exchange-correlation= PBE
                           (   1   4   3   4   0   0   0)

     celldm(1)=   4.656107  celldm(2)=   0.000000  celldm(3)=   6.087896
     celldm(4)=   0.000000  celldm(5)=   0.000000  celldm(6)=   0.000000

     crystal axes: (cart. coord. in units of alat)
               a(1) = (   1.000000   0.000000   0.000000 )  
               a(2) = (  -0.500000   0.866025   0.000000 )  
               a(3) = (   0.000000   0.000000   6.087896 )  

     reciprocal axes: (cart. coord. in units 2 pi/alat)
               b(1) = (  1.000000  0.577350  0.000000 )  
               b(2) = (  0.000000  1.154701  0.000000 )  
               b(3) = (  0.000000  0.000000  0.164260 )  


     PseudoPot. # 1 for C  read from file:
     ../pseudo/C.pbe-n-rrkjus_psl.0.1.UPF
     MD5 check sum: 96a6a315177d77e6c95bf6fd3870f9e3
     Pseudo is Ultrasoft + core correction, Zval =  4.0
     Generated using &quot;atomic&quot; code by A. Dal Corso  v.6.3MaX
     Using radial grid of 1073 points,  4 beta functions with: 
                l(1) =   0
                l(2) =   0
                l(3) =   1
                l(4) =   1
     Q(r) pseudized with 0 coefficients 


     atomic species   valence    mass     pseudopotential
        C              4.00    12.01070     C ( 1.00)

     24 Sym. Ops., with inversion, found



   Cartesian axes

     site n.     atom                  positions (alat units)
         1           C   tau(   1) = (   0.0000000   0.5773503   3.0439478  )
         2           C   tau(   2) = (   0.5000000   0.2886751   3.0439478  )

     number of k points=   156  Marzari-Vanderbilt smearing, width (Ry)=  0.0200

     Number of k-points >= 100: set verbosity='high' to print them.

     Dense  grid:    51311 G-vectors     FFT dimensions: (  27,  27, 162)

     Estimated max dynamical RAM per process >      13.66 MB

     Estimated total dynamical RAM >      54.65 MB
 ----2D----2D----2D----2D----2D----2D----2D----2D----2D----2D----2D----2D
  The code is running with the 2D cutoff
  Please refer to:
  Sohier, T., Calandra, M., & Mauri, F. (2017), 
  Density functional perturbation theory for gated two-dimensional heterostructu
 res:
  Theoretical developments and application to flexural phonons in graphene.
  Physical Review B, 96(7), 75448. https://doi.org/10.1103/PhysRevB.96.075448
 ----2D----2D----2D----2D----2D----2D----2D----2D----2D----2D----2D----2D

     Check: negative core charge=   -0.000001

     The potential is recalculated from file :
     ../tmp/_ph0/gr.q_2/gr.save/charge-density


     negative rho (up, down):  2.304E-05 0.000E+00
     Starting wfcs are    8 atomic wfcs

     Band Structure Calculation
     Davidson diagonalization with overlap

     ethr =  1.25E-10,  avg # of iterations = 37.6

     total cpu time spent up to now is       10.8 secs

     End of band structure calculation

     Number of k-points >= 100: set verbosity='high' to print the bands.

     the Fermi energy is    -4.1997 ev

     Writing config to output data dir ../tmp/_ph0/gr.q_2/gr.save/

     phonon calc.                                                               

     bravais-lattice index     =            4
     lattice parameter (alat)  =       4.6561  a.u.
     unit-cell volume          =     532.1899 (a.u.)^3
     number of atoms/cell      =            2
     number of atomic types    =            1
     kinetic-energy cut-off    =      80.0000  Ry
     charge density cut-off    =     320.0000  Ry
     convergence threshold     =      1.0E-14
     beta                      =       0.7000
     number of iterations used =            4
     Exchange-correlation= PBE
                           (   1   4   3   4   0   0   0)


     celldm(1)=    4.65611  celldm(2)=    0.00000  celldm(3)=    6.08790
     celldm(4)=    0.00000  celldm(5)=    0.00000  celldm(6)=    0.00000

     crystal axes: (cart. coord. in units of alat)
               a(1) = (  1.0000  0.0000  0.0000 )  
               a(2) = ( -0.5000  0.8660  0.0000 )  
               a(3) = (  0.0000  0.0000  6.0879 )  

     reciprocal axes: (cart. coord. in units 2 pi/alat)
               b(1) = (  1.0000  0.5774  0.0000 )  
               b(2) = (  0.0000  1.1547  0.0000 )  
               b(3) = (  0.0000  0.0000  0.1643 )  


     Atoms inside the unit cell: 

     Cartesian axes

     site n.  atom      mass           positions (alat units)
        1     C   12.0107   tau(    1) = (    0.00000    0.57735    3.04395  )
        2     C   12.0107   tau(    2) = (    0.50000    0.28868    3.04395  )

     Computing dynamical matrix for 
                    q = (   0.0000000   0.1924501   0.0000000 )
 
      4 Sym.Ops. (no q -> -q+G )


     G cutoff =  175.7260  (  12829 G-vectors)     FFT grid: ( 27, 27,162)

     number of k points=   156  Marzari-Vanderbilt smearing, width (Ry)=  0.0200

     PseudoPot. # 1 for C  read from file:
     ../pseudo/C.pbe-n-rrkjus_psl.0.1.UPF
     MD5 check sum: 96a6a315177d77e6c95bf6fd3870f9e3
     Pseudo is Ultrasoft + core correction, Zval =  4.0
     Generated using &quot;atomic&quot; code by A. Dal Corso  v.6.3MaX
     Using radial grid of 1073 points,  4 beta functions with: 
                l(1) =   0
                l(2) =   0
                l(3) =   1
                l(4) =   1
     Q(r) pseudized with 0 coefficients 


     Mode symmetry, C_2v (mm2)  point group:


     Atomic displacements:
     There are    6 irreducible representations

     Representation     1      1 modes -  To be done

     Representation     2      1 modes -  To be done

     Representation     3      1 modes -  To be done

     Representation     4      1 modes -  To be done

     Representation     5      1 modes -  To be done

     Representation     6      1 modes -  To be done



     Alpha used in Ewald sum =   2.8000

     negative rho (up, down):  2.304E-05 0.000E+00
     PHONON       :     26.66s CPU     27.27s WALL



     Representation #   1 mode #   1

     Self-consistent Calculation

      iter #   1 total cpu time :    28.8 secs   av.it.:   9.1
      thresh= 1.000E-02 alpha_mix =  0.700 |ddv_scf|^2 =  4.475E-05

      iter #   2 total cpu time :    30.7 secs   av.it.:  13.3
      thresh= 6.690E-04 alpha_mix =  0.700 |ddv_scf|^2 =  2.845E-04

      iter #   3 total cpu time :    32.5 secs   av.it.:  11.6
      thresh= 1.687E-03 alpha_mix =  0.700 |ddv_scf|^2 =  1.942E-08

      iter #   4 total cpu time :    34.6 secs   av.it.:  14.9
      thresh= 1.394E-05 alpha_mix =  0.700 |ddv_scf|^2 =  8.221E-09

      iter #   5 total cpu time :    36.6 secs   av.it.:  14.1
      thresh= 9.067E-06 alpha_mix =  0.700 |ddv_scf|^2 =  2.190E-10

      iter #   6 total cpu time :    38.7 secs   av.it.:  14.4
      thresh= 1.480E-06 alpha_mix =  0.700 |ddv_scf|^2 =  8.535E-12

      iter #   7 total cpu time :    40.6 secs   av.it.:  12.4
      thresh= 2.921E-07 alpha_mix =  0.700 |ddv_scf|^2 =  2.381E-12

      iter #   8 total cpu time :    42.5 secs   av.it.:  12.6
      thresh= 1.543E-07 alpha_mix =  0.700 |ddv_scf|^2 =  5.392E-13

      iter #   9 total cpu time :    44.4 secs   av.it.:  12.6
      thresh= 7.343E-08 alpha_mix =  0.700 |ddv_scf|^2 =  4.519E-16

     End of self-consistent calculation

     Convergence has been achieved 


     Representation #   2 mode #   2

     Self-consistent Calculation

      iter #   1 total cpu time :    46.2 secs   av.it.:   9.1
      thresh= 1.000E-02 alpha_mix =  0.700 |ddv_scf|^2 =  4.475E-05

      iter #   2 total cpu time :    48.1 secs   av.it.:  13.3
      thresh= 6.690E-04 alpha_mix =  0.700 |ddv_scf|^2 =  2.845E-04

      iter #   3 total cpu time :    49.9 secs   av.it.:  11.6
      thresh= 1.687E-03 alpha_mix =  0.700 |ddv_scf|^2 =  1.942E-08

      iter #   4 total cpu time :    52.0 secs   av.it.:  14.9
      thresh= 1.394E-05 alpha_mix =  0.700 |ddv_scf|^2 =  8.221E-09

      iter #   5 total cpu time :    54.1 secs   av.it.:  14.1
      thresh= 9.067E-06 alpha_mix =  0.700 |ddv_scf|^2 =  2.191E-10

      iter #   6 total cpu time :    56.3 secs   av.it.:  14.4
      thresh= 1.480E-06 alpha_mix =  0.700 |ddv_scf|^2 =  8.566E-12

      iter #   7 total cpu time :    58.1 secs   av.it.:  12.4
      thresh= 2.927E-07 alpha_mix =  0.700 |ddv_scf|^2 =  2.586E-12

      iter #   8 total cpu time :    60.0 secs   av.it.:  12.6
      thresh= 1.608E-07 alpha_mix =  0.700 |ddv_scf|^2 =  5.332E-13

      iter #   9 total cpu time :    61.8 secs   av.it.:  12.6
      thresh= 7.302E-08 alpha_mix =  0.700 |ddv_scf|^2 =  4.603E-16

     End of self-consistent calculation

     Convergence has been achieved 


     Representation #   3 mode #   3

     Self-consistent Calculation

      iter #   1 total cpu time :    63.5 secs   av.it.:   8.4
      thresh= 1.000E-02 alpha_mix =  0.700 |ddv_scf|^2 =  2.064E-07

      iter #   2 total cpu time :    65.6 secs   av.it.:  14.3
      thresh= 4.543E-05 alpha_mix =  0.700 |ddv_scf|^2 =  1.119E-08

      iter #   3 total cpu time :    67.5 secs   av.it.:  12.6
      thresh= 1.058E-05 alpha_mix =  0.700 |ddv_scf|^2 =  3.566E-10

      iter #   4 total cpu time :    69.4 secs   av.it.:  12.6
      thresh= 1.888E-06 alpha_mix =  0.700 |ddv_scf|^2 =  1.106E-13

      iter #   5 total cpu time :    71.5 secs   av.it.:  15.3
      thresh= 3.325E-08 alpha_mix =  0.700 |ddv_scf|^2 =  2.063E-15

     End of self-consistent calculation

     Convergence has been achieved 


     Representation #   4 mode #   4

     Self-consistent Calculation

      iter #   1 total cpu time :    73.3 secs   av.it.:   8.4
      thresh= 1.000E-02 alpha_mix =  0.700 |ddv_scf|^2 =  2.064E-07

      iter #   2 total cpu time :    75.3 secs   av.it.:  14.3
      thresh= 4.543E-05 alpha_mix =  0.700 |ddv_scf|^2 =  1.119E-08

      iter #   3 total cpu time :    77.2 secs   av.it.:  12.6
      thresh= 1.058E-05 alpha_mix =  0.700 |ddv_scf|^2 =  3.566E-10

      iter #   4 total cpu time :    79.1 secs   av.it.:  12.6
      thresh= 1.888E-06 alpha_mix =  0.700 |ddv_scf|^2 =  1.106E-13

      iter #   5 total cpu time :    81.2 secs   av.it.:  15.3
      thresh= 3.325E-08 alpha_mix =  0.700 |ddv_scf|^2 =  2.063E-15

     End of self-consistent calculation

     Convergence has been achieved 


     Representation #   5 mode #   5

     Self-consistent Calculation

      iter #   1 total cpu time :    83.0 secs   av.it.:   8.3
      thresh= 1.000E-02 alpha_mix =  0.700 |ddv_scf|^2 =  5.235E-06

      iter #   2 total cpu time :    85.0 secs   av.it.:  13.7
      thresh= 2.288E-04 alpha_mix =  0.700 |ddv_scf|^2 =  1.766E-06

      iter #   3 total cpu time :    87.0 secs   av.it.:  13.5
      thresh= 1.329E-04 alpha_mix =  0.700 |ddv_scf|^2 =  8.550E-09

      iter #   4 total cpu time :    88.8 secs   av.it.:  12.2
      thresh= 9.247E-06 alpha_mix =  0.700 |ddv_scf|^2 =  3.074E-12

      iter #   5 total cpu time :    90.9 secs   av.it.:  14.6
      thresh= 1.753E-07 alpha_mix =  0.700 |ddv_scf|^2 =  1.373E-13

      iter #   6 total cpu time :    92.8 secs   av.it.:  12.7
      thresh= 3.705E-08 alpha_mix =  0.700 |ddv_scf|^2 =  1.629E-15

     End of self-consistent calculation

     Convergence has been achieved 


     Representation #   6 mode #   6

     Self-consistent Calculation

      iter #   1 total cpu time :    94.6 secs   av.it.:   8.3
      thresh= 1.000E-02 alpha_mix =  0.700 |ddv_scf|^2 =  5.235E-06

      iter #   2 total cpu time :    96.5 secs   av.it.:  13.7
      thresh= 2.288E-04 alpha_mix =  0.700 |ddv_scf|^2 =  1.766E-06

      iter #   3 total cpu time :    98.5 secs   av.it.:  13.5
      thresh= 1.329E-04 alpha_mix =  0.700 |ddv_scf|^2 =  8.550E-09

      iter #   4 total cpu time :   100.3 secs   av.it.:  12.3
      thresh= 9.247E-06 alpha_mix =  0.700 |ddv_scf|^2 =  3.075E-12

      iter #   5 total cpu time :   102.4 secs   av.it.:  14.6
      thresh= 1.753E-07 alpha_mix =  0.700 |ddv_scf|^2 =  1.374E-13

      iter #   6 total cpu time :   104.3 secs   av.it.:  12.7
      thresh= 3.707E-08 alpha_mix =  0.700 |ddv_scf|^2 =  1.629E-15

     End of self-consistent calculation

     Convergence has been achieved 
 
     Number of q in the star =    6
     List of q in the star:
          1   0.000000000   0.192450090   0.000000000
          2   0.000000000  -0.192450090   0.000000000
          3  -0.166666667   0.096225045   0.000000000
          4  -0.166666667  -0.096225045   0.000000000
          5   0.166666667  -0.096225045   0.000000000
          6   0.166666667   0.096225045   0.000000000

     Diagonalizing the dynamical matrix

     q = (    0.000000000   0.192450090   0.000000000 ) 

 **************************************************************************
     freq (    1) =       2.630407 [THz] =      87.740930 [cm-1]
     freq (    2) =      10.046492 [THz] =     335.114914 [cm-1]
     freq (    3) =      16.339505 [THz] =     545.027211 [cm-1]
     freq (    4) =      25.639869 [THz] =     855.253969 [cm-1]
     freq (    5) =      45.236967 [THz] =    1508.942796 [cm-1]
     freq (    6) =      47.975893 [THz] =    1600.303521 [cm-1]
 **************************************************************************

     Mode symmetry, C_2v (mm2)  point group:

     freq (   1-   1) =         87.7  [cm-1]   --> B_2  D_4  S_4      
     freq (   2-   2) =        335.1  [cm-1]   --> B_1  D_3  S_3      
     freq (   3-   3) =        545.0  [cm-1]   --> A_1  D_1  S_1      
     freq (   4-   4) =        855.3  [cm-1]   --> B_2  D_4  S_4      
     freq (   5-   5) =       1508.9  [cm-1]   --> B_1  D_3  S_3      
     freq (   6-   6) =       1600.3  [cm-1]   --> A_1  D_1  S_1      
     electron-phonon interaction  ...

     Gaussian Broadening:   0.020 Ry, ngauss=   0
     DOS =  0.122860 states/spin/Ry/Unit Cell at Ef= -4.238911 eV
     lambda(    1)=  0.0000   gamma=    0.00 GHz
     lambda(    2)=  0.0000   gamma=    0.00 GHz
     lambda(    3)=  0.0000   gamma=    0.00 GHz
     lambda(    4)=  0.0000   gamma=    0.00 GHz
     lambda(    5)=  0.0000   gamma=    0.00 GHz
     lambda(    6)=  0.0000   gamma=    0.00 GHz
     Gaussian Broadening:   0.040 Ry, ngauss=   0
     DOS =  0.242754 states/spin/Ry/Unit Cell at Ef= -4.244465 eV
     lambda(    1)=  0.0000   gamma=    0.00 GHz
     lambda(    2)=  0.0000   gamma=    0.00 GHz
     lambda(    3)=  0.0000   gamma=    0.00 GHz
     lambda(    4)=  0.0000   gamma=    0.00 GHz
     lambda(    5)=  0.0000   gamma=    0.02 GHz
     lambda(    6)=  0.0000   gamma=    0.02 GHz
     Gaussian Broadening:   0.060 Ry, ngauss=   0
     DOS =  0.390420 states/spin/Ry/Unit Cell at Ef= -4.259073 eV
     lambda(    1)=  0.0000   gamma=    0.00 GHz
     lambda(    2)=  0.0031   gamma=    0.12 GHz
     lambda(    3)=  0.0023   gamma=    0.23 GHz
     lambda(    4)=  0.0000   gamma=    0.00 GHz
     lambda(    5)=  0.0057   gamma=    4.34 GHz
     lambda(    6)=  0.0033   gamma=    2.80 GHz
     Gaussian Broadening:   0.080 Ry, ngauss=   0
     DOS =  0.575004 states/spin/Ry/Unit Cell at Ef= -4.286670 eV
     lambda(    1)=  0.0000   gamma=    0.00 GHz
     lambda(    2)=  0.0145   gamma=    0.80 GHz
     lambda(    3)=  0.0100   gamma=    1.47 GHz
     lambda(    4)=  0.0000   gamma=    0.00 GHz
     lambda(    5)=  0.0252   gamma=   28.36 GHz
     lambda(    6)=  0.0143   gamma=   18.02 GHz
     Gaussian Broadening:   0.100 Ry, ngauss=   0
     DOS =  0.776356 states/spin/Ry/Unit Cell at Ef= -4.312762 eV
     lambda(    1)=  0.0000   gamma=    0.00 GHz
     lambda(    2)=  0.0280   gamma=    2.09 GHz
     lambda(    3)=  0.0187   gamma=    3.71 GHz
     lambda(    4)=  0.0000   gamma=    0.00 GHz
     lambda(    5)=  0.0462   gamma=   70.03 GHz
     lambda(    6)=  0.0260   gamma=   44.36 GHz
     Gaussian Broadening:   0.120 Ry, ngauss=   0
     DOS =  0.971043 states/spin/Ry/Unit Cell at Ef= -4.328522 eV
     lambda(    1)=  0.0001   gamma=    0.00 GHz
     lambda(    2)=  0.0394   gamma=    3.68 GHz
     lambda(    3)=  0.0259   gamma=    6.41 GHz
     lambda(    4)=  0.0000   gamma=    0.00 GHz
     lambda(    5)=  0.0615   gamma=  116.73 GHz
     lambda(    6)=  0.0347   gamma=   74.00 GHz
     Gaussian Broadening:   0.140 Ry, ngauss=   0
     DOS =  1.149505 states/spin/Ry/Unit Cell at Ef= -4.334146 eV
     lambda(    1)=  0.0009   gamma=    0.01 GHz
     lambda(    2)=  0.0473   gamma=    5.24 GHz
     lambda(    3)=  0.0312   gamma=    9.14 GHz
     lambda(    4)=  0.0000   gamma=    0.01 GHz
     lambda(    5)=  0.0709   gamma=  159.19 GHz
     lambda(    6)=  0.0405   gamma=  102.42 GHz
     Gaussian Broadening:   0.160 Ry, ngauss=   0
     DOS =  1.312227 states/spin/Ry/Unit Cell at Ef= -4.332440 eV
     lambda(    1)=  0.0062   gamma=    0.05 GHz
     lambda(    2)=  0.0517   gamma=    6.54 GHz
     lambda(    3)=  0.0348   gamma=   11.63 GHz
     lambda(    4)=  0.0001   gamma=    0.05 GHz
     lambda(    5)=  0.0754   gamma=  193.34 GHz
     lambda(    6)=  0.0445   gamma=  128.21 GHz
     Gaussian Broadening:   0.180 Ry, ngauss=   0
     DOS =  1.463004 states/spin/Ry/Unit Cell at Ef= -4.326204 eV
     lambda(    1)=  0.0263   gamma=    0.25 GHz
     lambda(    2)=  0.0534   gamma=    7.53 GHz
     lambda(    3)=  0.0369   gamma=   13.75 GHz
     lambda(    4)=  0.0002   gamma=    0.21 GHz
     lambda(    5)=  0.0766   gamma=  218.88 GHz
     lambda(    6)=  0.0470   gamma=  151.17 GHz
     Gaussian Broadening:   0.200 Ry, ngauss=   0
     DOS =  1.605645 states/spin/Ry/Unit Cell at Ef= -4.317604 eV
     lambda(    1)=  0.0774   gamma=    0.82 GHz
     lambda(    2)=  0.0530   gamma=    8.21 GHz
     lambda(    3)=  0.0378   gamma=   15.45 GHz
     lambda(    4)=  0.0006   gamma=    0.65 GHz
     lambda(    5)=  0.0756   gamma=  237.11 GHz
     lambda(    6)=  0.0485   gamma=  171.31 GHz
 
 
     Number of q in the star =    6
     List of q in the star:
          1   0.000000000   0.192450090   0.000000000
          2   0.000000000  -0.192450090   0.000000000
          3  -0.166666667   0.096225045   0.000000000
          4  -0.166666667  -0.096225045   0.000000000
          5   0.166666667  -0.096225045   0.000000000
          6   0.166666667   0.096225045   0.000000000

     Calculation of q =    0.0000000   0.3849002   0.0000000
 
     Parallelization info
     --------------------
     sticks:   dense  smooth     PW     G-vecs:    dense   smooth      PW
     Min         118     118     40                12812    12812    2482
     Max         119     119     42                12835    12835    2493
     Sum         475     475    163                51311    51311    9951
 
     Using Slab Decomposition
 

     Title: 
     phonon calc.                                                               


     bravais-lattice index     =            4
     lattice parameter (alat)  =       4.6561  a.u.
     unit-cell volume          =     532.1899 (a.u.)^3
     number of atoms/cell      =            2
     number of atomic types    =            1
     number of electrons       =         8.00
     number of Kohn-Sham states=            8
     kinetic-energy cutoff     =      80.0000  Ry
     charge density cutoff     =     320.0000  Ry
     Exchange-correlation= PBE
                           (   1   4   3   4   0   0   0)

     celldm(1)=   4.656107  celldm(2)=   0.000000  celldm(3)=   6.087896
     celldm(4)=   0.000000  celldm(5)=   0.000000  celldm(6)=   0.000000

     crystal axes: (cart. coord. in units of alat)
               a(1) = (   1.000000   0.000000   0.000000 )  
               a(2) = (  -0.500000   0.866025   0.000000 )  
               a(3) = (   0.000000   0.000000   6.087896 )  

     reciprocal axes: (cart. coord. in units 2 pi/alat)
               b(1) = (  1.000000  0.577350  0.000000 )  
               b(2) = (  0.000000  1.154701  0.000000 )  
               b(3) = (  0.000000  0.000000  0.164260 )  


     PseudoPot. # 1 for C  read from file:
     ../pseudo/C.pbe-n-rrkjus_psl.0.1.UPF
     MD5 check sum: 96a6a315177d77e6c95bf6fd3870f9e3
     Pseudo is Ultrasoft + core correction, Zval =  4.0
     Generated using &quot;atomic&quot; code by A. Dal Corso  v.6.3MaX
     Using radial grid of 1073 points,  4 beta functions with: 
                l(1) =   0
                l(2) =   0
                l(3) =   1
                l(4) =   1
     Q(r) pseudized with 0 coefficients 


     atomic species   valence    mass     pseudopotential
        C              4.00    12.01070     C ( 1.00)

     24 Sym. Ops., with inversion, found



   Cartesian axes

     site n.     atom                  positions (alat units)
         1           C   tau(   1) = (   0.0000000   0.5773503   3.0439478  )
         2           C   tau(   2) = (   0.5000000   0.2886751   3.0439478  )

     number of k points=   156  Marzari-Vanderbilt smearing, width (Ry)=  0.0200

     Number of k-points >= 100: set verbosity='high' to print them.

     Dense  grid:    51311 G-vectors     FFT dimensions: (  27,  27, 162)

     Estimated max dynamical RAM per process >      13.67 MB

     Estimated total dynamical RAM >      54.68 MB
 ----2D----2D----2D----2D----2D----2D----2D----2D----2D----2D----2D----2D
  The code is running with the 2D cutoff
  Please refer to:
  Sohier, T., Calandra, M., & Mauri, F. (2017), 
  Density functional perturbation theory for gated two-dimensional heterostructu
 res:
  Theoretical developments and application to flexural phonons in graphene.
  Physical Review B, 96(7), 75448. https://doi.org/10.1103/PhysRevB.96.075448
 ----2D----2D----2D----2D----2D----2D----2D----2D----2D----2D----2D----2D

     Check: negative core charge=   -0.000001

     The potential is recalculated from file :
     ../tmp/_ph0/gr.q_3/gr.save/charge-density


     negative rho (up, down):  2.304E-05 0.000E+00
     Starting wfcs are    8 atomic wfcs

     Band Structure Calculation
     Davidson diagonalization with overlap

     ethr =  1.25E-10,  avg # of iterations = 37.9

     total cpu time spent up to now is       22.1 secs

     End of band structure calculation

     Number of k-points >= 100: set verbosity='high' to print the bands.

     the Fermi energy is    -4.1997 ev

     Writing config to output data dir ../tmp/_ph0/gr.q_3/gr.save/

     phonon calc.                                                               

     bravais-lattice index     =            4
     lattice parameter (alat)  =       4.6561  a.u.
     unit-cell volume          =     532.1899 (a.u.)^3
     number of atoms/cell      =            2
     number of atomic types    =            1
     kinetic-energy cut-off    =      80.0000  Ry
     charge density cut-off    =     320.0000  Ry
     convergence threshold     =      1.0E-14
     beta                      =       0.7000
     number of iterations used =            4
     Exchange-correlation= PBE
                           (   1   4   3   4   0   0   0)


     celldm(1)=    4.65611  celldm(2)=    0.00000  celldm(3)=    6.08790
     celldm(4)=    0.00000  celldm(5)=    0.00000  celldm(6)=    0.00000

     crystal axes: (cart. coord. in units of alat)
               a(1) = (  1.0000  0.0000  0.0000 )  
               a(2) = ( -0.5000  0.8660  0.0000 )  
               a(3) = (  0.0000  0.0000  6.0879 )  

     reciprocal axes: (cart. coord. in units 2 pi/alat)
               b(1) = (  1.0000  0.5774  0.0000 )  
               b(2) = (  0.0000  1.1547  0.0000 )  
               b(3) = (  0.0000  0.0000  0.1643 )  


     Atoms inside the unit cell: 

     Cartesian axes

     site n.  atom      mass           positions (alat units)
        1     C   12.0107   tau(    1) = (    0.00000    0.57735    3.04395  )
        2     C   12.0107   tau(    2) = (    0.50000    0.28868    3.04395  )

     Computing dynamical matrix for 
                    q = (   0.0000000   0.3849002   0.0000000 )
 
      4 Sym.Ops. (no q -> -q+G )


     G cutoff =  175.7260  (  12829 G-vectors)     FFT grid: ( 27, 27,162)

     number of k points=   156  Marzari-Vanderbilt smearing, width (Ry)=  0.0200

     PseudoPot. # 1 for C  read from file:
     ../pseudo/C.pbe-n-rrkjus_psl.0.1.UPF
     MD5 check sum: 96a6a315177d77e6c95bf6fd3870f9e3
     Pseudo is Ultrasoft + core correction, Zval =  4.0
     Generated using &quot;atomic&quot; code by A. Dal Corso  v.6.3MaX
     Using radial grid of 1073 points,  4 beta functions with: 
                l(1) =   0
                l(2) =   0
                l(3) =   1
                l(4) =   1
     Q(r) pseudized with 0 coefficients 


     Mode symmetry, C_2v (mm2)  point group:


     Atomic displacements:
     There are    6 irreducible representations

     Representation     1      1 modes -  To be done

     Representation     2      1 modes -  To be done

     Representation     3      1 modes -  To be done

     Representation     4      1 modes -  To be done

     Representation     5      1 modes -  To be done

     Representation     6      1 modes -  To be done



     Alpha used in Ewald sum =   2.8000

     negative rho (up, down):  2.304E-05 0.000E+00
     PHONON       :   1m53.98s CPU   1m57.29s WALL



     Representation #   1 mode #   1

     Self-consistent Calculation

      iter #   1 total cpu time :   118.9 secs   av.it.:   9.3
      thresh= 1.000E-02 alpha_mix =  0.700 |ddv_scf|^2 =  9.266E-06

      iter #   2 total cpu time :   121.1 secs   av.it.:  14.4
      thresh= 3.044E-04 alpha_mix =  0.700 |ddv_scf|^2 =  2.451E-05

      iter #   3 total cpu time :   123.2 secs   av.it.:  13.2
      thresh= 4.951E-04 alpha_mix =  0.700 |ddv_scf|^2 =  6.167E-08

      iter #   4 total cpu time :   125.4 secs   av.it.:  14.9
      thresh= 2.483E-05 alpha_mix =  0.700 |ddv_scf|^2 =  9.792E-09

      iter #   5 total cpu time :   127.5 secs   av.it.:  14.3
      thresh= 9.895E-06 alpha_mix =  0.700 |ddv_scf|^2 =  3.409E-10

      iter #   6 total cpu time :   129.6 secs   av.it.:  14.6
      thresh= 1.846E-06 alpha_mix =  0.700 |ddv_scf|^2 =  4.576E-13

      iter #   7 total cpu time :   131.7 secs   av.it.:  14.5
      thresh= 6.765E-08 alpha_mix =  0.700 |ddv_scf|^2 =  6.602E-15

     End of self-consistent calculation

     Convergence has been achieved 


     Representation #   2 mode #   2

     Self-consistent Calculation

      iter #   1 total cpu time :   133.6 secs   av.it.:   9.3
      thresh= 1.000E-02 alpha_mix =  0.700 |ddv_scf|^2 =  9.266E-06

      iter #   2 total cpu time :   135.7 secs   av.it.:  14.4
      thresh= 3.044E-04 alpha_mix =  0.700 |ddv_scf|^2 =  2.451E-05

      iter #   3 total cpu time :   137.7 secs   av.it.:  13.2
      thresh= 4.951E-04 alpha_mix =  0.700 |ddv_scf|^2 =  6.167E-08

      iter #   4 total cpu time :   139.8 secs   av.it.:  14.8
      thresh= 2.483E-05 alpha_mix =  0.700 |ddv_scf|^2 =  9.792E-09

      iter #   5 total cpu time :   141.9 secs   av.it.:  14.3
      thresh= 9.896E-06 alpha_mix =  0.700 |ddv_scf|^2 =  3.409E-10

      iter #   6 total cpu time :   144.0 secs   av.it.:  14.6
      thresh= 1.846E-06 alpha_mix =  0.700 |ddv_scf|^2 =  4.577E-13

      iter #   7 total cpu time :   146.1 secs   av.it.:  14.5
      thresh= 6.765E-08 alpha_mix =  0.700 |ddv_scf|^2 =  6.633E-15

     End of self-consistent calculation

     Convergence has been achieved 


     Representation #   3 mode #   3

     Self-consistent Calculation

      iter #   1 total cpu time :   147.9 secs   av.it.:   8.5
      thresh= 1.000E-02 alpha_mix =  0.700 |ddv_scf|^2 =  2.677E-07

      iter #   2 total cpu time :   150.0 secs   av.it.:  14.1
      thresh= 5.174E-05 alpha_mix =  0.700 |ddv_scf|^2 =  1.322E-08

      iter #   3 total cpu time :   151.9 secs   av.it.:  13.1
      thresh= 1.150E-05 alpha_mix =  0.700 |ddv_scf|^2 =  6.655E-10

      iter #   4 total cpu time :   153.8 secs   av.it.:  12.8
      thresh= 2.580E-06 alpha_mix =  0.700 |ddv_scf|^2 =  1.079E-13

      iter #   5 total cpu time :   156.0 secs   av.it.:  15.3
      thresh= 3.285E-08 alpha_mix =  0.700 |ddv_scf|^2 =  1.453E-15

     End of self-consistent calculation

     Convergence has been achieved 


     Representation #   4 mode #   4

     Self-consistent Calculation

      iter #   1 total cpu time :   157.8 secs   av.it.:   8.5
      thresh= 1.000E-02 alpha_mix =  0.700 |ddv_scf|^2 =  2.677E-07

      iter #   2 total cpu time :   159.8 secs   av.it.:  14.2
      thresh= 5.174E-05 alpha_mix =  0.700 |ddv_scf|^2 =  1.322E-08

      iter #   3 total cpu time :   161.8 secs   av.it.:  13.1
      thresh= 1.150E-05 alpha_mix =  0.700 |ddv_scf|^2 =  6.655E-10

      iter #   4 total cpu time :   163.6 secs   av.it.:  12.8
      thresh= 2.580E-06 alpha_mix =  0.700 |ddv_scf|^2 =  1.079E-13

      iter #   5 total cpu time :   165.8 secs   av.it.:  15.3
      thresh= 3.285E-08 alpha_mix =  0.700 |ddv_scf|^2 =  1.453E-15

     End of self-consistent calculation

     Convergence has been achieved 


     Representation #   5 mode #   5

     Self-consistent Calculation

      iter #   1 total cpu time :   167.6 secs   av.it.:   8.1
      thresh= 1.000E-02 alpha_mix =  0.700 |ddv_scf|^2 =  1.026E-06

      iter #   2 total cpu time :   169.8 secs   av.it.:  14.2
      thresh= 1.013E-04 alpha_mix =  0.700 |ddv_scf|^2 =  7.405E-08

      iter #   3 total cpu time :   171.9 secs   av.it.:  14.4
      thresh= 2.721E-05 alpha_mix =  0.700 |ddv_scf|^2 =  5.169E-09

      iter #   4 total cpu time :   173.9 secs   av.it.:  13.3
      thresh= 7.190E-06 alpha_mix =  0.700 |ddv_scf|^2 =  1.078E-12

      iter #   5 total cpu time :   176.1 secs   av.it.:  14.8
      thresh= 1.038E-07 alpha_mix =  0.700 |ddv_scf|^2 =  3.110E-14

      iter #   6 total cpu time :   178.1 secs   av.it.:  14.2
      thresh= 1.764E-08 alpha_mix =  0.700 |ddv_scf|^2 =  2.280E-16

     End of self-consistent calculation

     Convergence has been achieved 


     Representation #   6 mode #   6

     Self-consistent Calculation

      iter #   1 total cpu time :   179.9 secs   av.it.:   8.1
      thresh= 1.000E-02 alpha_mix =  0.700 |ddv_scf|^2 =  1.026E-06

      iter #   2 total cpu time :   182.0 secs   av.it.:  14.2
      thresh= 1.013E-04 alpha_mix =  0.700 |ddv_scf|^2 =  7.405E-08

      iter #   3 total cpu time :   184.1 secs   av.it.:  14.3
      thresh= 2.721E-05 alpha_mix =  0.700 |ddv_scf|^2 =  5.169E-09

      iter #   4 total cpu time :   186.1 secs   av.it.:  13.3
      thresh= 7.190E-06 alpha_mix =  0.700 |ddv_scf|^2 =  1.077E-12

      iter #   5 total cpu time :   188.3 secs   av.it.:  14.8
      thresh= 1.038E-07 alpha_mix =  0.700 |ddv_scf|^2 =  3.109E-14

      iter #   6 total cpu time :   190.4 secs   av.it.:  14.1
      thresh= 1.763E-08 alpha_mix =  0.700 |ddv_scf|^2 =  2.281E-16

     End of self-consistent calculation

     Convergence has been achieved 
 
     Number of q in the star =    6
     List of q in the star:
          1   0.000000000   0.384900179   0.000000000
          2   0.000000000  -0.384900179   0.000000000
          3  -0.333333333   0.192450090   0.000000000
          4  -0.333333333  -0.192450090   0.000000000
          5   0.333333333  -0.192450090   0.000000000
          6   0.333333333   0.192450090   0.000000000

     Diagonalizing the dynamical matrix

     q = (    0.000000000   0.384900179   0.000000000 ) 

 **************************************************************************
     freq (    1) =       8.231149 [THz] =     274.561565 [cm-1]
     freq (    2) =      16.602346 [THz] =     553.794637 [cm-1]
     freq (    3) =      23.079589 [THz] =     769.852222 [cm-1]
     freq (    4) =      30.075751 [THz] =    1003.219078 [cm-1]
     freq (    5) =      42.746144 [THz] =    1425.857874 [cm-1]
     freq (    6) =      45.995706 [THz] =    1534.251613 [cm-1]
 **************************************************************************

     Mode symmetry, C_2v (mm2)  point group:

     freq (   1-   1) =        274.6  [cm-1]   --> B_2  D_4  S_4      
     freq (   2-   2) =        553.8  [cm-1]   --> B_1  D_3  S_3      
     freq (   3-   3) =        769.9  [cm-1]   --> B_2  D_4  S_4      
     freq (   4-   4) =       1003.2  [cm-1]   --> A_1  D_1  S_1      
     freq (   5-   5) =       1425.9  [cm-1]   --> B_1  D_3  S_3      
     freq (   6-   6) =       1534.3  [cm-1]   --> A_1  D_1  S_1      
     electron-phonon interaction  ...

     Gaussian Broadening:   0.020 Ry, ngauss=   0
     DOS =  0.122860 states/spin/Ry/Unit Cell at Ef= -4.238911 eV
     lambda(    1)=  0.0000   gamma=    0.00 GHz
     lambda(    2)=  0.0000   gamma=    0.00 GHz
     lambda(    3)=  0.0000   gamma=    0.00 GHz
     lambda(    4)=  0.0000   gamma=    0.00 GHz
     lambda(    5)=  0.0000   gamma=    0.00 GHz
     lambda(    6)=  0.0000   gamma=    0.00 GHz
     Gaussian Broadening:   0.040 Ry, ngauss=   0
     DOS =  0.242754 states/spin/Ry/Unit Cell at Ef= -4.244465 eV
     lambda(    1)=  0.0000   gamma=    0.00 GHz
     lambda(    2)=  0.0000   gamma=    0.00 GHz
     lambda(    3)=  0.0000   gamma=    0.00 GHz
     lambda(    4)=  0.0000   gamma=    0.00 GHz
     lambda(    5)=  0.0000   gamma=    0.00 GHz
     lambda(    6)=  0.0000   gamma=    0.00 GHz
     Gaussian Broadening:   0.060 Ry, ngauss=   0
     DOS =  0.390420 states/spin/Ry/Unit Cell at Ef= -4.259073 eV
     lambda(    1)=  0.0000   gamma=    0.00 GHz
     lambda(    2)=  0.0000   gamma=    0.00 GHz
     lambda(    3)=  0.0000   gamma=    0.00 GHz
     lambda(    4)=  0.0000   gamma=    0.01 GHz
     lambda(    5)=  0.0000   gamma=    0.02 GHz
     lambda(    6)=  0.0000   gamma=    0.02 GHz
     Gaussian Broadening:   0.080 Ry, ngauss=   0
     DOS =  0.575004 states/spin/Ry/Unit Cell at Ef= -4.286670 eV
     lambda(    1)=  0.0000   gamma=    0.00 GHz
     lambda(    2)=  0.0002   gamma=    0.03 GHz
     lambda(    3)=  0.0000   gamma=    0.00 GHz
     lambda(    4)=  0.0005   gamma=    0.27 GHz
     lambda(    5)=  0.0014   gamma=    1.42 GHz
     lambda(    6)=  0.0006   gamma=    0.64 GHz
     Gaussian Broadening:   0.100 Ry, ngauss=   0
     DOS =  0.776356 states/spin/Ry/Unit Cell at Ef= -4.312762 eV
     lambda(    1)=  0.0000   gamma=    0.00 GHz
     lambda(    2)=  0.0011   gamma=    0.23 GHz
     lambda(    3)=  0.0000   gamma=    0.00 GHz
     lambda(    4)=  0.0025   gamma=    1.68 GHz
     lambda(    5)=  0.0076   gamma=   10.30 GHz
     lambda(    6)=  0.0025   gamma=    3.95 GHz
     Gaussian Broadening:   0.120 Ry, ngauss=   0
     DOS =  0.971043 states/spin/Ry/Unit Cell at Ef= -4.328522 eV
     lambda(    1)=  0.0011   gamma=    0.07 GHz
     lambda(    2)=  0.0028   gamma=    0.72 GHz
     lambda(    3)=  0.0001   gamma=    0.06 GHz
     lambda(    4)=  0.0058   gamma=    4.90 GHz
     lambda(    5)=  0.0184   gamma=   31.16 GHz
     lambda(    6)=  0.0059   gamma=   11.65 GHz
     Gaussian Broadening:   0.140 Ry, ngauss=   0
     DOS =  1.149505 states/spin/Ry/Unit Cell at Ef= -4.334146 eV
     lambda(    1)=  0.0072   gamma=    0.54 GHz
     lambda(    2)=  0.0047   gamma=    1.42 GHz
     lambda(    3)=  0.0008   gamma=    0.46 GHz
     lambda(    4)=  0.0096   gamma=    9.53 GHz
     lambda(    5)=  0.0303   gamma=   60.87 GHz
     lambda(    6)=  0.0099   gamma=   22.94 GHz
     Gaussian Broadening:   0.160 Ry, ngauss=   0
     DOS =  1.312227 states/spin/Ry/Unit Cell at Ef= -4.332440 eV
     lambda(    1)=  0.0238   gamma=    2.02 GHz
     lambda(    2)=  0.0063   gamma=    2.17 GHz
     lambda(    3)=  0.0025   gamma=    1.69 GHz
     lambda(    4)=  0.0129   gamma=   14.63 GHz
     lambda(    5)=  0.0406   gamma=   93.05 GHz
     lambda(    6)=  0.0135   gamma=   35.75 GHz
     Gaussian Broadening:   0.180 Ry, ngauss=   0
     DOS =  1.463004 states/spin/Ry/Unit Cell at Ef= -4.326204 eV
     lambda(    1)=  0.0532   gamma=    5.04 GHz
     lambda(    2)=  0.0074   gamma=    2.86 GHz
     lambda(    3)=  0.0056   gamma=    4.18 GHz
     lambda(    4)=  0.0155   gamma=   19.55 GHz
     lambda(    5)=  0.0481   gamma=  122.74 GHz
     lambda(    6)=  0.0165   gamma=   48.64 GHz
     Gaussian Broadening:   0.200 Ry, ngauss=   0
     DOS =  1.605645 states/spin/Ry/Unit Cell at Ef= -4.317604 eV
     lambda(    1)=  0.0939   gamma=    9.76 GHz
     lambda(    2)=  0.0082   gamma=    3.46 GHz
     lambda(    3)=  0.0098   gamma=    8.03 GHz
     lambda(    4)=  0.0173   gamma=   24.01 GHz
     lambda(    5)=  0.0527   gamma=  147.58 GHz
     lambda(    6)=  0.0188   gamma=   61.08 GHz
 
 
     Number of q in the star =    6
     List of q in the star:
          1   0.000000000   0.384900179   0.000000000
          2   0.000000000  -0.384900179   0.000000000
          3  -0.333333333   0.192450090   0.000000000
          4  -0.333333333  -0.192450090   0.000000000
          5   0.333333333  -0.192450090   0.000000000
          6   0.333333333   0.192450090   0.000000000

     Calculation of q =    0.0000000  -0.5773503   0.0000000
 
     Parallelization info
     --------------------
     sticks:   dense  smooth     PW     G-vecs:    dense   smooth      PW
     Min         118     118     40                12812    12812    2596
     Max         119     119     41                12835    12835    2617
     Sum         475     475    163                51311    51311   10433
 
     Using Slab Decomposition
 

     Title: 
     phonon calc.                                                               


     bravais-lattice index     =            4
     lattice parameter (alat)  =       4.6561  a.u.
     unit-cell volume          =     532.1899 (a.u.)^3
     number of atoms/cell      =            2
     number of atomic types    =            1
     number of electrons       =         8.00
     number of Kohn-Sham states=            8
     kinetic-energy cutoff     =      80.0000  Ry
     charge density cutoff     =     320.0000  Ry
     Exchange-correlation= PBE
                           (   1   4   3   4   0   0   0)

     celldm(1)=   4.656107  celldm(2)=   0.000000  celldm(3)=   6.087896
     celldm(4)=   0.000000  celldm(5)=   0.000000  celldm(6)=   0.000000

     crystal axes: (cart. coord. in units of alat)
               a(1) = (   1.000000   0.000000   0.000000 )  
               a(2) = (  -0.500000   0.866025   0.000000 )  
               a(3) = (   0.000000   0.000000   6.087896 )  

     reciprocal axes: (cart. coord. in units 2 pi/alat)
               b(1) = (  1.000000  0.577350  0.000000 )  
               b(2) = (  0.000000  1.154701  0.000000 )  
               b(3) = (  0.000000  0.000000  0.164260 )  


     PseudoPot. # 1 for C  read from file:
     ../pseudo/C.pbe-n-rrkjus_psl.0.1.UPF
     MD5 check sum: 96a6a315177d77e6c95bf6fd3870f9e3
     Pseudo is Ultrasoft + core correction, Zval =  4.0
     Generated using &quot;atomic&quot; code by A. Dal Corso  v.6.3MaX
     Using radial grid of 1073 points,  4 beta functions with: 
                l(1) =   0
                l(2) =   0
                l(3) =   1
                l(4) =   1
     Q(r) pseudized with 0 coefficients 


     atomic species   valence    mass     pseudopotential
        C              4.00    12.01070     C ( 1.00)

     24 Sym. Ops., with inversion, found



   Cartesian axes

     site n.     atom                  positions (alat units)
         1           C   tau(   1) = (   0.0000000   0.5773503   3.0439478  )
         2           C   tau(   2) = (   0.5000000   0.2886751   3.0439478  )

     number of k points=    86  Marzari-Vanderbilt smearing, width (Ry)=  0.0200
                       cart. coord. in units 2pi/alat
        k(    1) = (   0.0000000   0.0000000   0.0000000), wk =   0.0138889
        k(    2) = (   0.0000000  -0.5773503   0.0000000), wk =   0.0000000
        k(    3) = (   0.0000000   0.0962250   0.0000000), wk =   0.0277778
        k(    4) = (   0.0000000  -0.4811252   0.0000000), wk =   0.0000000
        k(    5) = (   0.0000000   0.1924501   0.0000000), wk =   0.0277778
        k(    6) = (   0.0000000  -0.3849002   0.0000000), wk =   0.0000000
        k(    7) = (   0.0000000   0.2886751   0.0000000), wk =   0.0277778
        k(    8) = (   0.0000000  -0.2886751   0.0000000), wk =   0.0000000
        k(    9) = (   0.0000000   0.3849002   0.0000000), wk =   0.0277778
        k(   10) = (   0.0000000  -0.1924501   0.0000000), wk =   0.0000000
        k(   11) = (   0.0000000   0.4811252   0.0000000), wk =   0.0277778
        k(   12) = (   0.0000000  -0.0962250   0.0000000), wk =   0.0000000
        k(   13) = (   0.0000000  -0.5773503   0.0000000), wk =   0.0138889
        k(   14) = (   0.0000000  -1.1547005   0.0000000), wk =   0.0000000
        k(   15) = (   0.0833333   0.1443376   0.0000000), wk =   0.0555556
        k(   16) = (   0.0833333  -0.4330127   0.0000000), wk =   0.0000000
        k(   17) = (   0.0833333   0.2405626   0.0000000), wk =   0.0555556
        k(   18) = (   0.0833333  -0.3367877   0.0000000), wk =   0.0000000
        k(   19) = (   0.0833333   0.3367877   0.0000000), wk =   0.0555556
        k(   20) = (   0.0833333  -0.2405626   0.0000000), wk =   0.0000000
        k(   21) = (   0.0833333   0.4330127   0.0000000), wk =   0.0555556
        k(   22) = (   0.0833333  -0.1443376   0.0000000), wk =   0.0000000
        k(   23) = (   0.0833333   0.5292377   0.0000000), wk =   0.0555556
        k(   24) = (   0.0833333  -0.0481125   0.0000000), wk =   0.0000000
        k(   25) = (   0.1666667   0.2886751   0.0000000), wk =   0.0555556
        k(   26) = (   0.1666667  -0.2886751   0.0000000), wk =   0.0000000
        k(   27) = (   0.1666667   0.3849002   0.0000000), wk =   0.0555556
        k(   28) = (   0.1666667  -0.1924501   0.0000000), wk =   0.0000000
        k(   29) = (   0.1666667   0.4811252   0.0000000), wk =   0.0555556
        k(   30) = (   0.1666667  -0.0962250   0.0000000), wk =   0.0000000
        k(   31) = (   0.1666667   0.5773503   0.0000000), wk =   0.0277778
        k(   32) = (   0.1666667   0.0000000   0.0000000), wk =   0.0000000
        k(   33) = (   0.2500000   0.4330127   0.0000000), wk =   0.0555556
        k(   34) = (   0.2500000  -0.1443376   0.0000000), wk =   0.0000000
        k(   35) = (   0.2500000   0.5292377   0.0000000), wk =   0.0555556
        k(   36) = (   0.2500000  -0.0481125   0.0000000), wk =   0.0000000
        k(   37) = (   0.3333333   0.5773503   0.0000000), wk =   0.0277778
        k(   38) = (   0.3333333   0.0000000   0.0000000), wk =   0.0000000
        k(   39) = (   0.0833333  -0.0481125   0.0000000), wk =   0.0555556
        k(   40) = (   0.0833333  -0.6254628   0.0000000), wk =   0.0000000
        k(   41) = (   0.1666667  -0.0962250   0.0000000), wk =   0.0555556
        k(   42) = (   0.1666667  -0.6735753   0.0000000), wk =   0.0000000
        k(   43) = (   0.2500000  -0.1443376   0.0000000), wk =   0.0555556
        k(   44) = (   0.2500000  -0.7216878   0.0000000), wk =   0.0000000
        k(   45) = (   0.3333333  -0.1924501   0.0000000), wk =   0.0555556
        k(   46) = (   0.3333333  -0.7698004   0.0000000), wk =   0.0000000
        k(   47) = (   0.4166667  -0.2405626   0.0000000), wk =   0.0555556
        k(   48) = (   0.4166667  -0.8179129   0.0000000), wk =   0.0000000
        k(   49) = (  -0.5000000   0.2886751   0.0000000), wk =   0.0277778
        k(   50) = (  -0.5000000  -0.2886751   0.0000000), wk =   0.0000000
        k(   51) = (  -0.1666667  -0.0000000   0.0000000), wk =   0.0277778
        k(   52) = (  -0.1666667  -0.5773503   0.0000000), wk =   0.0000000
        k(   53) = (   0.1666667  -0.1924501   0.0000000), wk =   0.0555556
        k(   54) = (   0.1666667  -0.7698004   0.0000000), wk =   0.0000000
        k(   55) = (  -0.2500000  -0.0481125   0.0000000), wk =   0.0555556
        k(   56) = (  -0.2500000  -0.6254628   0.0000000), wk =   0.0000000
        k(   57) = (   0.2500000  -0.2405626   0.0000000), wk =   0.0555556
        k(   58) = (   0.2500000  -0.8179129   0.0000000), wk =   0.0000000
        k(   59) = (  -0.3333333  -0.0962250   0.0000000), wk =   0.0555556
        k(   60) = (  -0.3333333  -0.6735753   0.0000000), wk =   0.0000000
        k(   61) = (   0.3333333  -0.2886751   0.0000000), wk =   0.0555556
        k(   62) = (   0.3333333  -0.8660254   0.0000000), wk =   0.0000000
        k(   63) = (  -0.4166667  -0.1443376   0.0000000), wk =   0.0555556
        k(   64) = (  -0.4166667  -0.7216878   0.0000000), wk =   0.0000000
        k(   65) = (   0.4166667  -0.3367877   0.0000000), wk =   0.0555556
        k(   66) = (   0.4166667  -0.9141379   0.0000000), wk =   0.0000000
        k(   67) = (  -0.5000000  -0.1924501   0.0000000), wk =   0.0555556
        k(   68) = (  -0.5000000  -0.7698004   0.0000000), wk =   0.0000000
        k(   69) = (  -0.3333333  -0.0000000   0.0000000), wk =   0.0277778
        k(   70) = (  -0.3333333  -0.5773503   0.0000000), wk =   0.0000000
        k(   71) = (   0.2500000  -0.3367877   0.0000000), wk =   0.0555556
        k(   72) = (   0.2500000  -0.9141379   0.0000000), wk =   0.0000000
        k(   73) = (  -0.4166667  -0.0481125   0.0000000), wk =   0.0555556
        k(   74) = (  -0.4166667  -0.6254628   0.0000000), wk =   0.0000000
        k(   75) = (   0.3333333  -0.3849002   0.0000000), wk =   0.0555556
        k(   76) = (   0.3333333  -0.9622504   0.0000000), wk =   0.0000000
        k(   77) = (  -0.5000000  -0.0962250   0.0000000), wk =   0.0555556
        k(   78) = (  -0.5000000  -0.6735753   0.0000000), wk =   0.0000000
        k(   79) = (   0.4166667  -0.4330127   0.0000000), wk =   0.0555556
        k(   80) = (   0.4166667  -1.0103630   0.0000000), wk =   0.0000000
        k(   81) = (  -0.5000000   0.0000000   0.0000000), wk =   0.0277778
        k(   82) = (  -0.5000000  -0.5773503   0.0000000), wk =   0.0000000
        k(   83) = (   0.3333333  -0.4811252   0.0000000), wk =   0.0555556
        k(   84) = (   0.3333333  -1.0584755   0.0000000), wk =   0.0000000
        k(   85) = (  -0.5833333  -0.0481125   0.0000000), wk =   0.0555556
        k(   86) = (  -0.5833333  -0.6254628   0.0000000), wk =   0.0000000

     Dense  grid:    51311 G-vectors     FFT dimensions: (  27,  27, 162)

     Estimated max dynamical RAM per process >      13.68 MB

     Estimated total dynamical RAM >      54.70 MB
 ----2D----2D----2D----2D----2D----2D----2D----2D----2D----2D----2D----2D
  The code is running with the 2D cutoff
  Please refer to:
  Sohier, T., Calandra, M., & Mauri, F. (2017), 
  Density functional perturbation theory for gated two-dimensional heterostructu
 res:
  Theoretical developments and application to flexural phonons in graphene.
  Physical Review B, 96(7), 75448. https://doi.org/10.1103/PhysRevB.96.075448
 ----2D----2D----2D----2D----2D----2D----2D----2D----2D----2D----2D----2D

     Check: negative core charge=   -0.000001

     The potential is recalculated from file :
     ../tmp/_ph0/gr.q_4/gr.save/charge-density


     negative rho (up, down):  2.304E-05 0.000E+00
     Starting wfcs are    8 atomic wfcs

     Band Structure Calculation
     Davidson diagonalization with overlap

     ethr =  1.25E-10,  avg # of iterations = 36.5

     total cpu time spent up to now is       28.1 secs

     End of band structure calculation

          k = 0.0000 0.0000 0.0000 (  6489 PWs)   bands (ev):

   -23.7689 -11.8721  -7.3105  -7.3105  -0.9836  -0.1247   1.5167   2.4481

          k = 0.0000-0.5774 0.0000 (  6386 PWs)   bands (ev):

   -18.5233 -17.4996 -10.6903  -6.6025  -2.5581   3.1634   6.8761   7.0299

          k = 0.0000 0.0962 0.0000 (  6493 PWs)   bands (ev):

   -23.6049 -11.6758  -7.9593  -7.6488  -0.7607   0.1005   1.7409   2.6708

          k = 0.0000-0.4811 0.0000 (  6418 PWs)   bands (ev):

   -19.7900 -15.9905 -10.5279  -7.4479  -1.4592   3.2411   4.5755   7.1344

          k = 0.0000 0.1925 0.0000 (  6481 PWs)   bands (ev):

   -23.1150 -11.0924  -9.5936  -8.4413  -0.0921   0.7745   2.4130   3.3352

          k = 0.0000-0.3849 0.0000 (  6414 PWs)   bands (ev):

   -21.1861 -13.8908 -10.0548  -8.8717   0.6782   2.5636   3.4855   3.5002

          k = 0.0000 0.2887 0.0000 (  6429 PWs)   bands (ev):

   -22.3047 -11.6892 -10.1409  -9.3212   1.0202   1.8784   3.0329   3.5006

          k = 0.0000-0.2887 0.0000 (  6429 PWs)   bands (ev):

   -22.3047 -11.6892 -10.1409  -9.3212   1.0202   1.8784   3.0329   3.5006

          k = 0.0000 0.3849 0.0000 (  6414 PWs)   bands (ev):

   -21.1861 -13.8908 -10.0548  -8.8717   0.6782   2.5636   3.4855   3.5002

          k = 0.0000-0.1925 0.0000 (  6481 PWs)   bands (ev):

   -23.1150 -11.0924  -9.5936  -8.4413  -0.0921   0.7745   2.4130   3.3352

          k = 0.0000 0.4811 0.0000 (  6418 PWs)   bands (ev):

   -19.7900 -15.9905 -10.5279  -7.4479  -1.4592   3.2411   4.5755   7.1344

          k = 0.0000-0.0962 0.0000 (  6493 PWs)   bands (ev):

   -23.6049 -11.6758  -7.9593  -7.6488  -0.7607   0.1005   1.7409   2.6708

          k = 0.0000-0.5774 0.0000 (  6386 PWs)   bands (ev):

   -18.5233 -17.4996 -10.6903  -6.6025  -2.5581   3.1634   6.8761   7.0299

          k = 0.0000-1.1547 0.0000 (  6489 PWs)   bands (ev):

   -23.7689 -11.8721  -7.3105  -7.3105  -0.9836  -0.1247   1.5167   2.4481

          k = 0.0833 0.1443 0.0000 (  6473 PWs)   bands (ev):

   -23.2780 -11.2859  -8.9906  -8.3261  -0.3147   0.5503   2.1898   3.1152

          k = 0.0833-0.4330 0.0000 (  6423 PWs)   bands (ev):

   -20.4029 -14.8902 -10.8449  -8.0198  -0.5110   3.6526   4.0995   4.5725

          k = 0.0833 0.2406 0.0000 (  6444 PWs)   bands (ev):

   -22.6279 -10.6975 -10.5172  -9.3239   0.5767   1.4457   3.0865   3.8398

          k = 0.0833-0.3368 0.0000 (  6420 PWs)   bands (ev):

   -21.6633 -12.7685 -10.2101  -9.4004   1.6911   1.9092   2.8111   4.2737

          k = 0.0833 0.3368 0.0000 (  6420 PWs)   bands (ev):

   -21.6633 -12.7685 -10.2101  -9.4004   1.6911   1.9092   2.8111   4.2737

          k = 0.0833-0.2406 0.0000 (  6444 PWs)   bands (ev):

   -22.6279 -10.6975 -10.5172  -9.3239   0.5767   1.4457   3.0865   3.8398

          k = 0.0833 0.4330 0.0000 (  6423 PWs)   bands (ev):

   -20.4029 -14.8902 -10.8449  -8.0198  -0.5110   3.6526   4.0995   4.5725

          k = 0.0833-0.1443 0.0000 (  6473 PWs)   bands (ev):

   -23.2780 -11.2859  -8.9906  -8.3261  -0.3147   0.5503   2.1898   3.1152

          k = 0.0833 0.5292 0.0000 (  6418 PWs)   bands (ev):

   -18.9224 -16.8323 -11.1733  -6.7094  -2.2815   3.8998   5.8726   6.7280

          k = 0.0833-0.0481 0.0000 (  6493 PWs)   bands (ev):

   -23.6049 -11.6758  -7.9593  -7.6488  -0.7607   0.1005   1.7409   2.6708

          k = 0.1667 0.2887 0.0000 (  6421 PWs)   bands (ev):

   -21.8234 -12.0253 -10.6857  -9.5793   1.6894   2.1489   4.2101   5.7792

          k = 0.1667-0.2887 0.0000 (  6421 PWs)   bands (ev):

   -21.8234 -12.0253 -10.6857  -9.5793   1.6894   2.1489   4.2101   5.7792

          k = 0.1667 0.3849 0.0000 (  6439 PWs)   bands (ev):

   -20.7157 -13.7513 -11.7414  -8.3253   0.1990   3.2379   4.0928   5.7395

          k = 0.1667-0.1925 0.0000 (  6444 PWs)   bands (ev):

   -22.6279 -10.6975 -10.5172  -9.3239   0.5767   1.4457   3.0865   3.8398

          k = 0.1667 0.4811 0.0000 (  6433 PWs)   bands (ev):

   -19.3396 -15.6620 -12.3166  -6.8974  -1.7152   5.1939   5.8127   5.9692

          k = 0.1667-0.0962 0.0000 (  6481 PWs)   bands (ev):

   -23.1150 -11.0924  -9.5936  -8.4413  -0.0921   0.7745   2.4130   3.3352

          k = 0.1667 0.5774 0.0000 (  6408 PWs)   bands (ev):

   -18.1025 -17.0994 -12.5013  -6.0039  -2.7845   5.7047   7.4363   7.6362

          k = 0.1667 0.0000 0.0000 (  6473 PWs)   bands (ev):

   -23.2780 -11.2859  -8.9906  -8.3261  -0.3147   0.5503   2.1898   3.1152

          k = 0.2500 0.4330 0.0000 (  6437 PWs)   bands (ev):

   -19.4874 -14.7842 -13.2254  -6.9816  -1.4170   4.9859   7.5231   8.0386

          k = 0.2500-0.1443 0.0000 (  6429 PWs)   bands (ev):

   -22.3047 -11.6892 -10.1409  -9.3212   1.0202   1.8784   3.0329   3.5006

          k = 0.2500 0.5292 0.0000 (  6421 PWs)   bands (ev):

   -18.0644 -16.2062 -13.9324  -5.5947  -2.9386   6.6402   7.0775   7.9702

          k = 0.2500-0.0481 0.0000 (  6444 PWs)   bands (ev):

   -22.6279 -10.6975 -10.5172  -9.3239   0.5767   1.4457   3.0865   3.8398

          k = 0.3333 0.5774 0.0000 (  6408 PWs)   bands (ev):

   -16.8463 -16.8463 -14.8315  -4.2376  -4.2376   8.6469   8.6469  11.2271

          k = 0.3333 0.0000 0.0000 (  6421 PWs)   bands (ev):

   -21.8234 -12.0253 -10.6857  -9.5793   1.6894   2.1489   4.2101   5.7792

          k = 0.0833-0.0481 0.0000 (  6493 PWs)   bands (ev):

   -23.6049 -11.6758  -7.9593  -7.6488  -0.7607   0.1005   1.7409   2.6708

          k = 0.0833-0.6255 0.0000 (  6418 PWs)   bands (ev):

   -18.9224 -16.8323 -11.1733  -6.7094  -2.2815   3.8998   5.8726   6.7280

          k = 0.1667-0.0962 0.0000 (  6481 PWs)   bands (ev):

   -23.1150 -11.0924  -9.5936  -8.4413  -0.0921   0.7745   2.4130   3.3352

          k = 0.1667-0.6736 0.0000 (  6433 PWs)   bands (ev):

   -19.3396 -15.6620 -12.3166  -6.8974  -1.7152   5.1939   5.8127   7.7926

          k = 0.2500-0.1443 0.0000 (  6429 PWs)   bands (ev):

   -22.3047 -11.6892 -10.1409  -9.3212   1.0202   1.8784   3.0329   3.5006

          k = 0.2500-0.7217 0.0000 (  6437 PWs)   bands (ev):

   -19.4874 -14.7842 -13.2254  -6.9816  -1.4170   4.9859   7.5231   8.0386

          k = 0.3333-0.1925 0.0000 (  6414 PWs)   bands (ev):

   -21.1861 -13.8908 -10.0548  -8.8717   0.6782   2.5636   3.4855   3.5002

          k = 0.3333-0.7698 0.0000 (  6433 PWs)   bands (ev):

   -19.3396 -15.6620 -12.3166  -6.8974  -1.7152   5.1939   5.8127   5.9692

          k = 0.4167-0.2406 0.0000 (  6418 PWs)   bands (ev):

   -19.7900 -15.9905 -10.5279  -7.4479  -1.4592   3.2411   4.5755   7.1344

          k = 0.4167-0.8179 0.0000 (  6418 PWs)   bands (ev):

   -18.9224 -16.8323 -11.1733  -6.7094  -2.2815   3.8998   5.8726   6.7280

          k =-0.5000 0.2887 0.0000 (  6386 PWs)   bands (ev):

   -18.5233 -17.4996 -10.6903  -6.6025  -2.5581   3.1634   6.8761   7.0299

          k =-0.5000-0.2887 0.0000 (  6386 PWs)   bands (ev):

   -18.5233 -17.4996 -10.6903  -6.6025  -2.5581   3.1634   6.8761   7.0299

          k =-0.1667-0.0000 0.0000 (  6473 PWs)   bands (ev):

   -23.2780 -11.2859  -8.9906  -8.3261  -0.3147   0.5503   2.1898   3.1152

          k =-0.1667-0.5774 0.0000 (  6408 PWs)   bands (ev):

   -18.1025 -17.0994 -12.5013  -6.0039  -2.7845   5.7047   7.4363   7.6362

          k = 0.1667-0.1925 0.0000 (  6444 PWs)   bands (ev):

   -22.6279 -10.6975 -10.5172  -9.3239   0.5767   1.4457   3.0865   3.8398

          k = 0.1667-0.7698 0.0000 (  6439 PWs)   bands (ev):

   -20.7157 -13.7513 -11.7414  -8.3253   0.1990   3.2379   4.0928   5.7395

          k =-0.2500-0.0481 0.0000 (  6444 PWs)   bands (ev):

   -22.6279 -10.6975 -10.5172  -9.3239   0.5767   1.4457   3.0865   3.8398

          k =-0.2500-0.6255 0.0000 (  6421 PWs)   bands (ev):

   -18.0644 -16.2062 -13.9324  -5.5947  -2.9386   6.6402   7.0775   7.9702

          k = 0.2500-0.2406 0.0000 (  6420 PWs)   bands (ev):

   -21.6633 -12.7685 -10.2101  -9.4004   1.6911   1.9092   2.8111   4.2737

          k = 0.2500-0.8179 0.0000 (  6439 PWs)   bands (ev):

   -20.7157 -13.7513 -11.7414  -8.3253   0.1990   3.2379   4.0928   5.7395

          k =-0.3333-0.0962 0.0000 (  6420 PWs)   bands (ev):

   -21.6633 -12.7685 -10.2101  -9.4004   1.6911   1.9092   2.8111   4.2737

          k =-0.3333-0.6736 0.0000 (  6421 PWs)   bands (ev):

   -18.0644 -16.2062 -13.9324  -5.5947  -2.9386   6.6402   7.0775   7.9702

          k = 0.3333-0.2887 0.0000 (  6423 PWs)   bands (ev):

   -20.4029 -14.8902 -10.8449  -8.0198  -0.5110   3.6526   4.0995   4.5725

          k = 0.3333-0.8660 0.0000 (  6423 PWs)   bands (ev):

   -20.4029 -14.8902 -10.8449  -8.0198  -0.5110   3.6526   4.0995   4.5725

          k =-0.4167-0.1443 0.0000 (  6423 PWs)   bands (ev):

   -20.4029 -14.8902 -10.8449  -8.0198  -0.5110   3.6526   4.0995   4.5725

          k =-0.4167-0.7217 0.0000 (  6408 PWs)   bands (ev):

   -18.1025 -17.0994 -12.5013  -6.0039  -2.7845   5.7047   7.4363   7.6362

          k = 0.4167-0.3368 0.0000 (  6418 PWs)   bands (ev):

   -18.9224 -16.8323 -11.1733  -6.7094  -2.2815   3.8998   5.8726   6.7280

          k = 0.4167-0.9141 0.0000 (  6418 PWs)   bands (ev):

   -19.7900 -15.9905 -10.5279  -7.4479  -1.4592   3.2411   4.5755   7.1344

          k =-0.5000-0.1925 0.0000 (  6418 PWs)   bands (ev):

   -18.9224 -16.8323 -11.1733  -6.7094  -2.2815   3.8998   5.8726   6.7280

          k =-0.5000-0.7698 0.0000 (  6418 PWs)   bands (ev):

   -18.9224 -16.8323 -11.1733  -6.7094  -2.2815   3.8998   5.8726   6.7280

          k =-0.3333-0.0000 0.0000 (  6421 PWs)   bands (ev):

   -21.8234 -12.0253 -10.6857  -9.5793   1.6894   2.1489   4.2101   5.7792

          k =-0.3333-0.5774 0.0000 (  6408 PWs)   bands (ev):

   -16.8463 -16.8463 -14.8315  -4.2376  -4.2376   8.6469   8.6469  11.2271

          k = 0.2500-0.3368 0.0000 (  6439 PWs)   bands (ev):

   -20.7157 -13.7513 -11.7414  -8.3253   0.1990   3.2379   4.0928   5.7395

          k = 0.2500-0.9141 0.0000 (  6420 PWs)   bands (ev):

   -21.6633 -12.7685 -10.2101  -9.4004   1.6911   1.9092   2.8111   4.2737

          k =-0.4167-0.0481 0.0000 (  6439 PWs)   bands (ev):

   -20.7157 -13.7513 -11.7414  -8.3253   0.1990   3.2379   4.0928   5.7395

          k =-0.4167-0.6255 0.0000 (  6421 PWs)   bands (ev):

   -18.0644 -16.2062 -13.9324  -5.5947  -2.9386   6.6402   7.0775   7.9702

          k = 0.3333-0.3849 0.0000 (  6433 PWs)   bands (ev):

   -19.3396 -15.6620 -12.3166  -6.8974  -1.7152   5.1939   5.8127   5.9692

          k = 0.3333-0.9623 0.0000 (  6414 PWs)   bands (ev):

   -21.1861 -13.8908 -10.0548  -8.8717   0.6782   2.5636   3.4855   3.5002

          k =-0.5000-0.0962 0.0000 (  6433 PWs)   bands (ev):

   -19.3396 -15.6620 -12.3166  -6.8974  -1.7152   5.1939   5.8127   5.9692

          k =-0.5000-0.6736 0.0000 (  6433 PWs)   bands (ev):

   -19.3396 -15.6620 -12.3166  -6.8974  -1.7152   5.1939   5.8127   5.9692

          k = 0.4167-0.4330 0.0000 (  6408 PWs)   bands (ev):

   -18.1025 -17.0994 -12.5013  -6.0039  -2.7845   5.7047   7.4363   7.6362

          k = 0.4167-1.0104 0.0000 (  6423 PWs)   bands (ev):

   -20.4029 -14.8902 -10.8449  -8.0198  -0.5110   3.6526   4.0995   4.5725

          k =-0.5000 0.0000 0.0000 (  6437 PWs)   bands (ev):

   -19.4874 -14.7842 -13.2254  -6.9816  -1.4170   4.9859   7.5231   8.0386

          k =-0.5000-0.5774 0.0000 (  6437 PWs)   bands (ev):

   -19.4874 -14.7842 -13.2254  -6.9816  -1.4170   4.9859   7.5231   8.0386

          k = 0.3333-0.4811 0.0000 (  6421 PWs)   bands (ev):

   -18.0644 -16.2062 -13.9324  -5.5947  -2.9386   6.6402   7.0775   7.9702

          k = 0.3333-1.0585 0.0000 (  6420 PWs)   bands (ev):

   -21.6633 -12.7685 -10.2101  -9.4004   1.6911   1.9092   2.8111   4.2737

          k =-0.5833-0.0481 0.0000 (  6421 PWs)   bands (ev):

   -18.0644 -16.2062 -13.9324  -5.5947  -2.9386   6.6402   7.0775   7.9702

          k =-0.5833-0.6255 0.0000 (  6439 PWs)   bands (ev):

   -20.7157 -13.7513 -11.7414  -8.3253   0.1990   3.2379   4.0928   5.7395

     the Fermi energy is    -4.1997 ev

     Writing config to output data dir ../tmp/_ph0/gr.q_4/gr.save/

     phonon calc.                                                               

     bravais-lattice index     =            4
     lattice parameter (alat)  =       4.6561  a.u.
     unit-cell volume          =     532.1899 (a.u.)^3
     number of atoms/cell      =            2
     number of atomic types    =            1
     kinetic-energy cut-off    =      80.0000  Ry
     charge density cut-off    =     320.0000  Ry
     convergence threshold     =      1.0E-14
     beta                      =       0.7000
     number of iterations used =            4
     Exchange-correlation= PBE
                           (   1   4   3   4   0   0   0)


     celldm(1)=    4.65611  celldm(2)=    0.00000  celldm(3)=    6.08790
     celldm(4)=    0.00000  celldm(5)=    0.00000  celldm(6)=    0.00000

     crystal axes: (cart. coord. in units of alat)
               a(1) = (  1.0000  0.0000  0.0000 )  
               a(2) = ( -0.5000  0.8660  0.0000 )  
               a(3) = (  0.0000  0.0000  6.0879 )  

     reciprocal axes: (cart. coord. in units 2 pi/alat)
               b(1) = (  1.0000  0.5774  0.0000 )  
               b(2) = (  0.0000  1.1547  0.0000 )  
               b(3) = (  0.0000  0.0000  0.1643 )  


     Atoms inside the unit cell: 

     Cartesian axes

     site n.  atom      mass           positions (alat units)
        1     C   12.0107   tau(    1) = (    0.00000    0.57735    3.04395  )
        2     C   12.0107   tau(    2) = (    0.50000    0.28868    3.04395  )

     Computing dynamical matrix for 
                    q = (   0.0000000  -0.5773503   0.0000000 )
 
      9 Sym.Ops. (with q -> -q+G )


     G cutoff =  175.7260  (  12829 G-vectors)     FFT grid: ( 27, 27,162)

     number of k points=    86  Marzari-Vanderbilt smearing, width (Ry)=  0.0200

     PseudoPot. # 1 for C  read from file:
     ../pseudo/C.pbe-n-rrkjus_psl.0.1.UPF
     MD5 check sum: 96a6a315177d77e6c95bf6fd3870f9e3
     Pseudo is Ultrasoft + core correction, Zval =  4.0
     Generated using &quot;atomic&quot; code by A. Dal Corso  v.6.3MaX
     Using radial grid of 1073 points,  4 beta functions with: 
                l(1) =   0
                l(2) =   0
                l(3) =   1
                l(4) =   1
     Q(r) pseudized with 0 coefficients 


     Mode symmetry, D_2h (mmm)  point group:


     Atomic displacements:
     There are    6 irreducible representations

     Representation     1      1 modes -  To be done

     Representation     2      1 modes -  To be done

     Representation     3      1 modes -  To be done

     Representation     4      1 modes -  To be done

     Representation     5      1 modes -  To be done

     Representation     6      1 modes -  To be done



     Alpha used in Ewald sum =   2.8000

     negative rho (up, down):  2.304E-05 0.000E+00
     PHONON       :   3m11.97s CPU   3m17.60s WALL



     Representation #   1 mode #   1

     Self-consistent Calculation

      iter #   1 total cpu time :   198.5 secs   av.it.:   9.0
      thresh= 1.000E-02 alpha_mix =  0.700 |ddv_scf|^2 =  5.369E-06

      iter #   2 total cpu time :   199.7 secs   av.it.:  14.3
      thresh= 2.317E-04 alpha_mix =  0.700 |ddv_scf|^2 =  4.687E-06

      iter #   3 total cpu time :   200.8 secs   av.it.:  13.7
      thresh= 2.165E-04 alpha_mix =  0.700 |ddv_scf|^2 =  3.060E-08

[...]

          k = 0.1667 0.8660 0.0000 (  6421 PWs)   bands (ev):

   -21.8234 -12.0253 -10.6857  -9.5793   1.6894   2.1489   4.2101   5.7792

          k =-0.2500 0.3368 0.0000 (  6439 PWs)   bands (ev):

   -20.7157 -13.7513 -11.7414  -8.3253   0.1990   3.2379   4.0928   5.7395

          k = 0.0833 0.9141 0.0000 (  6444 PWs)   bands (ev):

   -22.6279 -10.6975 -10.5172  -9.3239   0.5767   1.4457   3.0865   3.8398

          k =-0.3333 0.3849 0.0000 (  6433 PWs)   bands (ev):

   -19.3396 -15.6620 -12.3166  -6.8974  -1.7152   5.1939   5.8127   5.9692

          k = 0.0000 0.9623 0.0000 (  6481 PWs)   bands (ev):

   -23.1150 -11.0924  -9.5936  -8.4413  -0.0921   0.7745   2.4130   3.3352

          k =-0.4167 0.4330 0.0000 (  6408 PWs)   bands (ev):

   -18.1025 -17.0994 -12.5013  -6.0039  -2.7845   5.7047   7.4363   7.6362

          k =-0.0833 1.0104 0.0000 (  6473 PWs)   bands (ev):

   -23.2780 -11.2859  -8.9906  -8.3261  -0.3147   0.5503   2.1898   3.1152

          k =-0.2500 0.4330 0.0000 (  6437 PWs)   bands (ev):

   -19.4874 -14.7842 -13.2254  -6.9816  -1.4170   4.9859   7.5231   8.0386

          k = 0.0833 1.0104 0.0000 (  6473 PWs)   bands (ev):

   -23.2780 -11.2859  -8.9906  -8.3261  -0.3147   0.5503   2.1898   3.1152

          k =-0.3333 0.4811 0.0000 (  6421 PWs)   bands (ev):

   -18.0644 -16.2062 -13.9324  -5.5947  -2.9386   6.6402   7.0775   7.9702

          k = 0.0000 1.0585 0.0000 (  6493 PWs)   bands (ev):

   -23.6049 -11.6758  -7.9593  -7.6488  -0.7607   0.1005   1.7409   2.6708

          k =-0.3333 0.5774 0.0000 (  6408 PWs)   bands (ev):

   -16.8463 -16.8463 -14.8315  -4.2376  -4.2376   8.6469   8.6469  11.2271

          k =-0.0000 1.1547 0.0000 (  6489 PWs)   bands (ev):

   -23.7689 -11.8721  -7.3105  -7.3105  -0.9836  -0.1247   1.5167   2.4481

     the Fermi energy is    -4.1997 ev

     Writing config to output data dir ../tmp/_ph0/gr.q_7/gr.save/

     phonon calc.                                                               

     bravais-lattice index     =            4
     lattice parameter (alat)  =       4.6561  a.u.
     unit-cell volume          =     532.1899 (a.u.)^3
     number of atoms/cell      =            2
     number of atomic types    =            1
     kinetic-energy cut-off    =      80.0000  Ry
     charge density cut-off    =     320.0000  Ry
     convergence threshold     =      1.0E-14
     beta                      =       0.7000
     number of iterations used =            4
     Exchange-correlation= PBE
                           (   1   4   3   4   0   0   0)


     celldm(1)=    4.65611  celldm(2)=    0.00000  celldm(3)=    6.08790
     celldm(4)=    0.00000  celldm(5)=    0.00000  celldm(6)=    0.00000

     crystal axes: (cart. coord. in units of alat)
               a(1) = (  1.0000  0.0000  0.0000 )  
               a(2) = ( -0.5000  0.8660  0.0000 )  
               a(3) = (  0.0000  0.0000  6.0879 )  

     reciprocal axes: (cart. coord. in units 2 pi/alat)
               b(1) = (  1.0000  0.5774  0.0000 )  
               b(2) = (  0.0000  1.1547  0.0000 )  
               b(3) = (  0.0000  0.0000  0.1643 )  


     Atoms inside the unit cell: 

     Cartesian axes

     site n.  atom      mass           positions (alat units)
        1     C   12.0107   tau(    1) = (    0.00000    0.57735    3.04395  )
        2     C   12.0107   tau(    2) = (    0.50000    0.28868    3.04395  )

     Computing dynamical matrix for 
                    q = (   0.3333333   0.5773503   0.0000000 )
 
     12 Sym.Ops. (no q -> -q+G )


     G cutoff =  175.7260  (  12829 G-vectors)     FFT grid: ( 27, 27,162)

     number of k points=    62  Marzari-Vanderbilt smearing, width (Ry)=  0.0200

     PseudoPot. # 1 for C  read from file:
     ../pseudo/C.pbe-n-rrkjus_psl.0.1.UPF
     MD5 check sum: 96a6a315177d77e6c95bf6fd3870f9e3
     Pseudo is Ultrasoft + core correction, Zval =  4.0
     Generated using &quot;atomic&quot; code by A. Dal Corso  v.6.3MaX
     Using radial grid of 1073 points,  4 beta functions with: 
                l(1) =   0
                l(2) =   0
                l(3) =   1
                l(4) =   1
     Q(r) pseudized with 0 coefficients 


     Mode symmetry, D_3h (-62m) point group:


     Atomic displacements:
     There are    4 irreducible representations

     Representation     1      1 modes -  To be done

     Representation     2      1 modes -  To be done

     Representation     3      2 modes -  To be done

     Representation     4      2 modes -  To be done



     Alpha used in Ewald sum =   2.8000

     negative rho (up, down):  2.304E-05 0.000E+00
     PHONON       :   8m 8.04s CPU   8m21.86s WALL



     Representation #   1 mode #   1

     Self-consistent Calculation

      iter #   1 total cpu time :   502.5 secs   av.it.:   8.7
      thresh= 1.000E-02 alpha_mix =  0.700 |ddv_scf|^2 =  2.240E-06

      iter #   2 total cpu time :   503.4 secs   av.it.:  14.3
      thresh= 1.497E-04 alpha_mix =  0.700 |ddv_scf|^2 =  3.046E-07

      iter #   3 total cpu time :   504.2 secs   av.it.:  14.0
      thresh= 5.519E-05 alpha_mix =  0.700 |ddv_scf|^2 =  4.778E-09

      iter #   4 total cpu time :   505.0 secs   av.it.:  12.5
      thresh= 6.912E-06 alpha_mix =  0.700 |ddv_scf|^2 =  8.387E-13

      iter #   5 total cpu time :   505.9 secs   av.it.:  15.0
      thresh= 9.158E-08 alpha_mix =  0.700 |ddv_scf|^2 =  7.781E-15

     End of self-consistent calculation

     Convergence has been achieved 


     Representation #   2 mode #   2

     Self-consistent Calculation

      iter #   1 total cpu time :   506.6 secs   av.it.:   6.5
      thresh= 1.000E-02 alpha_mix =  0.700 |ddv_scf|^2 =  2.956E-07

      iter #   2 total cpu time :   507.3 secs   av.it.:  10.5
      thresh= 5.437E-05 alpha_mix =  0.700 |ddv_scf|^2 =  2.658E-08

      iter #   3 total cpu time :   508.0 secs   av.it.:   9.4
      thresh= 1.630E-05 alpha_mix =  0.700 |ddv_scf|^2 =  4.873E-13

      iter #   4 total cpu time :   508.9 secs   av.it.:  13.9
      thresh= 6.981E-08 alpha_mix =  0.700 |ddv_scf|^2 =  1.212E-14

      iter #   5 total cpu time :   509.7 secs   av.it.:  13.2
      thresh= 1.101E-08 alpha_mix =  0.700 |ddv_scf|^2 =  1.550E-16

     End of self-consistent calculation

     Convergence has been achieved 


     Representation #   3 modes #   3   4

     Self-consistent Calculation

      iter #   1 total cpu time :   511.1 secs   av.it.:   9.0
      thresh= 1.000E-02 alpha_mix =  0.700 |ddv_scf|^2 =  7.072E-07

      iter #   2 total cpu time :   513.0 secs   av.it.:  15.6
      thresh= 8.409E-05 alpha_mix =  0.700 |ddv_scf|^2 =  9.629E-07

      iter #   3 total cpu time :   514.7 secs   av.it.:  14.9
      thresh= 9.813E-05 alpha_mix =  0.700 |ddv_scf|^2 =  5.065E-09

      iter #   4 total cpu time :   516.5 secs   av.it.:  15.1
      thresh= 7.117E-06 alpha_mix =  0.700 |ddv_scf|^2 =  5.406E-11

      iter #   5 total cpu time :   518.3 secs   av.it.:  15.2
      thresh= 7.352E-07 alpha_mix =  0.700 |ddv_scf|^2 =  1.490E-14

      iter #   6 total cpu time :   520.2 secs   av.it.:  15.6
      thresh= 1.221E-08 alpha_mix =  0.700 |ddv_scf|^2 =  2.464E-16

     End of self-consistent calculation

     Convergence has been achieved 


     Representation #   4 modes #   5   6

     Self-consistent Calculation

      iter #   1 total cpu time :   521.6 secs   av.it.:   8.0
      thresh= 1.000E-02 alpha_mix =  0.700 |ddv_scf|^2 =  1.544E-07

      iter #   2 total cpu time :   523.4 secs   av.it.:  14.8
      thresh= 3.929E-05 alpha_mix =  0.700 |ddv_scf|^2 =  1.037E-08

      iter #   3 total cpu time :   525.0 secs   av.it.:  13.4
      thresh= 1.018E-05 alpha_mix =  0.700 |ddv_scf|^2 =  2.454E-10

      iter #   4 total cpu time :   526.7 secs   av.it.:  14.1
      thresh= 1.567E-06 alpha_mix =  0.700 |ddv_scf|^2 =  2.541E-14

      iter #   5 total cpu time :   528.5 secs   av.it.:  15.4
      thresh= 1.594E-08 alpha_mix =  0.700 |ddv_scf|^2 =  2.931E-16

     End of self-consistent calculation

     Convergence has been achieved 
 
     Number of q in the star =    2
     List of q in the star:
          1   0.333333333   0.577350269   0.000000000
          2  -0.333333333   0.577350269   0.000000000

     Diagonalizing the dynamical matrix

     q = (    0.333333333   0.577350269   0.000000000 ) 

 **************************************************************************
     freq (    1) =      16.024065 [THz] =     534.505284 [cm-1]
     freq (    2) =      16.024065 [THz] =     534.505284 [cm-1]
     freq (    3) =      29.832627 [THz] =     995.109314 [cm-1]
     freq (    4) =      36.358477 [THz] =    1212.788244 [cm-1]
     freq (    5) =      36.358477 [THz] =    1212.788244 [cm-1]
     freq (    6) =      36.407815 [THz] =    1214.433974 [cm-1]
 **************************************************************************

     Mode symmetry, D_3h (-62m) point group:

     freq (   1-   2) =        534.5  [cm-1]   --> E''                
     freq (   3-   3) =        995.1  [cm-1]   --> A'_2               
     freq (   4-   5) =       1212.8  [cm-1]   --> E'                 
     freq (   6-   6) =       1214.4  [cm-1]   --> A'_1               
     electron-phonon interaction  ...

     Gaussian Broadening:   0.020 Ry, ngauss=   0
     DOS =  0.122860 states/spin/Ry/Unit Cell at Ef= -4.238911 eV
     lambda(    1)=  0.0000   gamma=    0.00 GHz
     lambda(    2)=  0.0000   gamma=    0.00 GHz
     lambda(    3)=  0.0000   gamma=    0.00 GHz
     lambda(    4)=  0.0651   gamma=   10.10 GHz
     lambda(    5)=  0.0652   gamma=   10.12 GHz
     lambda(    6)=  2.0950   gamma=  325.81 GHz
     Gaussian Broadening:   0.040 Ry, ngauss=   0
     DOS =  0.242754 states/spin/Ry/Unit Cell at Ef= -4.244465 eV
     lambda(    1)=  0.0000   gamma=    0.00 GHz
     lambda(    2)=  0.0000   gamma=    0.00 GHz
     lambda(    3)=  0.0000   gamma=    0.00 GHz
     lambda(    4)=  0.0253   gamma=    7.75 GHz
     lambda(    5)=  0.0263   gamma=    8.05 GHz
     lambda(    6)=  0.6872   gamma=  211.15 GHz
     Gaussian Broadening:   0.060 Ry, ngauss=   0
     DOS =  0.390420 states/spin/Ry/Unit Cell at Ef= -4.259073 eV
     lambda(    1)=  0.0000   gamma=    0.00 GHz
     lambda(    2)=  0.0000   gamma=    0.00 GHz
     lambda(    3)=  0.0000   gamma=    0.00 GHz
     lambda(    4)=  0.0176   gamma=    8.67 GHz
     lambda(    5)=  0.0185   gamma=    9.11 GHz
     lambda(    6)=  0.4248   gamma=  209.96 GHz
     Gaussian Broadening:   0.080 Ry, ngauss=   0
     DOS =  0.575004 states/spin/Ry/Unit Cell at Ef= -4.286670 eV
     lambda(    1)=  0.0003   gamma=    0.04 GHz
     lambda(    2)=  0.0003   gamma=    0.04 GHz
     lambda(    3)=  0.0000   gamma=    0.00 GHz
     lambda(    4)=  0.0134   gamma=    9.71 GHz
     lambda(    5)=  0.0141   gamma=   10.20 GHz
     lambda(    6)=  0.2873   gamma=  209.13 GHz
     Gaussian Broadening:   0.100 Ry, ngauss=   0
     DOS =  0.776356 states/spin/Ry/Unit Cell at Ef= -4.312762 eV
     lambda(    1)=  0.0038   gamma=    0.71 GHz
     lambda(    2)=  0.0037   gamma=    0.71 GHz
     lambda(    3)=  0.0000   gamma=    0.00 GHz
     lambda(    4)=  0.0111   gamma=   10.86 GHz
     lambda(    5)=  0.0116   gamma=   11.34 GHz
     lambda(    6)=  0.2120   gamma=  208.34 GHz
     Gaussian Broadening:   0.120 Ry, ngauss=   0
     DOS =  0.971043 states/spin/Ry/Unit Cell at Ef= -4.328522 eV
     lambda(    1)=  0.0146   gamma=    3.47 GHz
     lambda(    2)=  0.0145   gamma=    3.46 GHz
     lambda(    3)=  0.0000   gamma=    0.00 GHz
     lambda(    4)=  0.0099   gamma=   12.09 GHz
     lambda(    5)=  0.0102   gamma=   12.54 GHz
     lambda(    6)=  0.1689   gamma=  207.62 GHz
     Gaussian Broadening:   0.140 Ry, ngauss=   0
     DOS =  1.149505 states/spin/Ry/Unit Cell at Ef= -4.334146 eV
     lambda(    1)=  0.0319   gamma=    8.99 GHz
     lambda(    2)=  0.0318   gamma=    8.96 GHz
     lambda(    3)=  0.0000   gamma=    0.00 GHz
     lambda(    4)=  0.0093   gamma=   13.47 GHz
     lambda(    5)=  0.0096   gamma=   13.89 GHz
     lambda(    6)=  0.1422   gamma=  206.86 GHz
     Gaussian Broadening:   0.160 Ry, ngauss=   0
     DOS =  1.312227 states/spin/Ry/Unit Cell at Ef= -4.332440 eV
     lambda(    1)=  0.0520   gamma=   16.72 GHz
     lambda(    2)=  0.0518   gamma=   16.66 GHz
     lambda(    3)=  0.0000   gamma=    0.00 GHz
     lambda(    4)=  0.0091   gamma=   15.08 GHz
     lambda(    5)=  0.0093   gamma=   15.47 GHz
     lambda(    6)=  0.1240   gamma=  205.94 GHz
     Gaussian Broadening:   0.180 Ry, ngauss=   0
     DOS =  1.463004 states/spin/Ry/Unit Cell at Ef= -4.326204 eV
     lambda(    1)=  0.0716   gamma=   25.68 GHz
     lambda(    2)=  0.0714   gamma=   25.61 GHz
     lambda(    3)=  0.0000   gamma=    0.00 GHz
     lambda(    4)=  0.0092   gamma=   17.01 GHz
     lambda(    5)=  0.0094   gamma=   17.37 GHz
     lambda(    6)=  0.1106   gamma=  204.84 GHz
     Gaussian Broadening:   0.200 Ry, ngauss=   0
     DOS =  1.605645 states/spin/Ry/Unit Cell at Ef= -4.317604 eV
     lambda(    1)=  0.0891   gamma=   35.09 GHz
     lambda(    2)=  0.0889   gamma=   35.01 GHz
     lambda(    3)=  0.0000   gamma=    0.00 GHz
     lambda(    4)=  0.0096   gamma=   19.37 GHz
     lambda(    5)=  0.0097   gamma=   19.70 GHz
     lambda(    6)=  0.1002   gamma=  203.57 GHz
 
 
     Number of q in the star =    2
     List of q in the star:
          1   0.333333333   0.577350269   0.000000000
          2  -0.333333333   0.577350269   0.000000000
 
     init_run     :      0.80s CPU      0.80s WALL (       6 calls)
     electrons    :     61.14s CPU     62.15s WALL (       6 calls)

     Called by init_run:
     wfcinit      :      0.00s CPU      0.00s WALL (       6 calls)
     potinit      :      0.05s CPU      0.05s WALL (       6 calls)
     hinit0       :      0.20s CPU      0.20s WALL (       6 calls)

     Called by electrons:
     c_bands      :     61.14s CPU     62.14s WALL (       6 calls)
     v_of_rho     :      0.05s CPU      0.05s WALL (       7 calls)
     newd         :      0.03s CPU      0.03s WALL (       7 calls)

     Called by c_bands:
     init_us_2    :      3.31s CPU      3.52s WALL (   28304 calls)
     init_us_2:cp :      3.27s CPU      3.48s WALL (   28304 calls)
     cegterg      :     58.10s CPU     58.88s WALL (    2142 calls)

     Called by *egterg:
     cdiaghg      :      3.03s CPU      3.08s WALL (   34989 calls)
     h_psi        :    356.61s CPU    364.20s WALL (  315271 calls)
     s_psi        :     15.58s CPU     16.00s WALL (  611185 calls)
     g_psi        :      0.35s CPU      0.36s WALL (   34085 calls)

     Called by h_psi:
     h_psi:calbec :      9.33s CPU      9.52s WALL (  315271 calls)
     vloc_psi     :    336.36s CPU    343.55s WALL (  315271 calls)
     add_vuspsi   :      8.05s CPU      8.25s WALL (  315271 calls)

     General routines
     calbec       :     18.59s CPU     19.11s WALL (  649683 calls)
     fft          :      1.10s CPU      1.15s WALL (    4379 calls)
     ffts         :      0.74s CPU      0.77s WALL (    3404 calls)
     fftw         :    347.69s CPU    356.43s WALL ( 2602734 calls)
     davcio       :      6.06s CPU      7.08s WALL (  107350 calls)
 
     Parallel routines
 
     PHONON       :   8m34.22s CPU   8m48.81s WALL

     INITIALIZATION: 
     phq_setup    :      0.11s CPU      0.13s WALL (       7 calls)
     phq_init     :      7.33s CPU      7.50s WALL (       7 calls)
 
     phq_init     :      7.33s CPU      7.50s WALL (       7 calls)
     set_drhoc    :      0.94s CPU      0.94s WALL (      21 calls)
     init_vloc    :      0.04s CPU      0.04s WALL (       7 calls)
     init_us_1    :      0.10s CPU      0.10s WALL (       7 calls)
     init_us_2    :      3.31s CPU      3.52s WALL (   28304 calls)
     newd         :      0.03s CPU      0.03s WALL (       7 calls)
     dvanqq       :      0.47s CPU      0.47s WALL (       7 calls)
     drho         :      5.15s CPU      5.27s WALL (       7 calls)
 
     DYNAMICAL MATRIX:
     dynmat0      :      1.00s CPU      1.00s WALL (       7 calls)
     phqscf       :    443.95s CPU    457.14s WALL (       7 calls)
     dynmatrix    :      0.00s CPU      0.03s WALL (       7 calls)
 
     phqscf       :    443.95s CPU    457.14s WALL (       7 calls)
     solve_linter :    442.80s CPU    455.89s WALL (      38 calls)
     drhodv       :      1.13s CPU      1.22s WALL (      38 calls)
 
     dynmat0      :      1.00s CPU      1.00s WALL (       7 calls)
     dynmat_us    :      0.31s CPU      0.31s WALL (       7 calls)
     d2ionq       :      0.01s CPU      0.01s WALL (       7 calls)
     dynmatcc     :      0.68s CPU      0.68s WALL (       7 calls)
 
     dynmat_us    :      0.31s CPU      0.31s WALL (       7 calls)
     addusdynmat  :      0.00s CPU      0.00s WALL (       7 calls)
 
     phqscf       :    443.95s CPU    457.14s WALL (       7 calls)
     solve_linter :    442.80s CPU    455.89s WALL (      38 calls)
 
     solve_linter :    442.80s CPU    455.89s WALL (      38 calls)
     dvqpsi_us    :      8.54s CPU      8.90s WALL (    2826 calls)
     sth_kernel   :    415.92s CPU    427.63s WALL (     229 calls)
     apply_dpot_b :     27.90s CPU     29.96s WALL (   17774 calls)
     ortho        :      2.63s CPU      2.83s WALL (   17774 calls)
     cgsolve      :    354.87s CPU    362.71s WALL (   17774 calls)
     incdrhoscf   :     27.56s CPU     28.40s WALL (   17774 calls)
     addusddens   :      1.79s CPU      1.82s WALL (     267 calls)
     vpsifft      :      6.90s CPU      7.27s WALL (    2826 calls)
     dv_of_drho   :      1.64s CPU      1.65s WALL (     248 calls)
     mix_pot      :      0.32s CPU      0.45s WALL (     229 calls)
     ef_shift     :      0.01s CPU      0.01s WALL (      20 calls)
     ef_shift_wfc :      0.00s CPU      0.01s WALL (       4 calls)
     localdos     :      0.12s CPU      0.12s WALL (       4 calls)
     psymdvscf    :      4.01s CPU      4.03s WALL (     229 calls)
     newdq        :      1.47s CPU      1.64s WALL (     229 calls)
     adddvscf     :      1.65s CPU      1.77s WALL (   17774 calls)
     drhodvus     :      0.02s CPU      0.03s WALL (      38 calls)
 
     dvqpsi_us    :      8.54s CPU      8.90s WALL (    2826 calls)
     dvqpsi_us_on :      0.53s CPU      0.55s WALL (    2826 calls)
 
     cgsolve      :    354.87s CPU    362.71s WALL (   17774 calls)
     ch_psi       :    345.55s CPU    353.13s WALL (  278140 calls)
 
     ch_psi       :    345.55s CPU    353.13s WALL (  278140 calls)
     h_psi        :    356.61s CPU    364.20s WALL (  315271 calls)
     last         :     26.36s CPU     26.93s WALL (  278140 calls)
 
     h_psi        :    356.61s CPU    364.20s WALL (  315271 calls)
     add_vuspsi   :      8.05s CPU      8.25s WALL (  315271 calls)
 
     incdrhoscf   :     27.56s CPU     28.40s WALL (   17774 calls)
     addusdbec    :      1.34s CPU      1.38s WALL (   20600 calls)
 
     drhodvus     :      0.02s CPU      0.03s WALL (      38 calls)
 
      Electron-phonon coupling
     elphel       :      7.96s CPU      8.50s WALL (      38 calls)
     elphsum      :      0.70s CPU      0.81s WALL (       7 calls)
 
      General routines
     calbec       :     18.59s CPU     19.11s WALL (  649683 calls)
     fft          :      1.10s CPU      1.15s WALL (    4379 calls)
     ffts         :      0.74s CPU      0.77s WALL (    3404 calls)
     fftw         :    347.69s CPU    356.43s WALL ( 2602734 calls)
     davcio       :      6.06s CPU      7.08s WALL (  107350 calls)
     write_rec    :      0.13s CPU      0.16s WALL (     267 calls)
 
 
     PHONON       :   8m34.22s CPU   8m48.81s WALL

 
   This run was terminated on:   7:47:40   6Feb2022            

=------------------------------------------------------------------------------=
   JOB DONE.
=------------------------------------------------------------------------------=
