
     Program PWSCF v.7.0 starts on  6Feb2022 at  7:38: 1 

     This program is part of the open-source Quantum ESPRESSO suite
     for quantum simulation of materials; please cite
         "P. Giannozzi et al., J. Phys.:Condens. Matter 21 395502 (2009);
         "P. Giannozzi et al., J. Phys.:Condens. Matter 29 465901 (2017);
         "P. Giannozzi et al., J. Chem. Phys. 152 154105 (2020);
          URL http://www.quantum-espresso.org", 
     in publications or presentations arising from this work. More details at
     http://www.quantum-espresso.org/quote

     Parallel version (MPI), running on     4 processors

     MPI processes distributed on     1 nodes
     R & G space division:  proc/nbgrp/npool/nimage =       4
     20626 MiB available memory on the printing compute node when the environment starts
 
     Waiting for input...
     Reading input from standard input

     Current dimensions of program PWSCF are:
     Max number of different atomic species (ntypx) = 10
     Max number of k-points (npk) =  40000
     Max angular momentum in pseudopotentials (lmaxx) =  4

     Subspace diagonalization in iterative solution of the eigenvalue problem:
     a serial algorithm will be used

 
     Parallelization info
     --------------------
     sticks:   dense  smooth     PW     G-vecs:    dense   smooth      PW
     Min         118     118     37                12812    12812    2155
     Max         119     119     38                12835    12835    2162
     Sum         475     475    151                51311    51311    8639
 
     Using Slab Decomposition
 


     bravais-lattice index     =            4
     lattice parameter (alat)  =       4.6561  a.u.
     unit-cell volume          =     532.1899 (a.u.)^3
     number of atoms/cell      =            2
     number of atomic types    =            1
     number of electrons       =         8.00
     number of Kohn-Sham states=            8
     kinetic-energy cutoff     =      80.0000  Ry
     charge density cutoff     =     320.0000  Ry
     scf convergence threshold =      1.0E-06
     mixing beta               =       0.7000
     number of iterations used =            8  plain     mixing
     Exchange-correlation= PBE
                           (   1   4   3   4   0   0   0)

     celldm(1)=   4.656107  celldm(2)=   0.000000  celldm(3)=   6.087896
     celldm(4)=   0.000000  celldm(5)=   0.000000  celldm(6)=   0.000000

     crystal axes: (cart. coord. in units of alat)
               a(1) = (   1.000000   0.000000   0.000000 )  
               a(2) = (  -0.500000   0.866025   0.000000 )  
               a(3) = (   0.000000   0.000000   6.087896 )  

     reciprocal axes: (cart. coord. in units 2 pi/alat)
               b(1) = (  1.000000  0.577350  0.000000 )  
               b(2) = (  0.000000  1.154701  0.000000 )  
               b(3) = (  0.000000  0.000000  0.164260 )  


     PseudoPot. # 1 for C  read from file:
     ../pseudo/C.pbe-n-rrkjus_psl.0.1.UPF
     MD5 check sum: 96a6a315177d77e6c95bf6fd3870f9e3
     Pseudo is Ultrasoft + core correction, Zval =  4.0
     Generated using &quot;atomic&quot; code by A. Dal Corso  v.6.3MaX
     Using radial grid of 1073 points,  4 beta functions with: 
                l(1) =   0
                l(2) =   0
                l(3) =   1
                l(4) =   1
     Q(r) pseudized with 0 coefficients 


     atomic species   valence    mass     pseudopotential
        C              4.00    12.01070     C ( 1.00)

     24 Sym. Ops., with inversion, found



   Cartesian axes

     site n.     atom                  positions (alat units)
         1           C   tau(   1) = (   0.0000000   0.5773503   3.0439478  )
         2           C   tau(   2) = (   0.5000000   0.2886751   3.0439478  )

     number of k points=   127  Marzari-Vanderbilt smearing, width (Ry)=  0.0200

     Number of k-points >= 100: set verbosity='high' to print them.

     Dense  grid:    51311 G-vectors     FFT dimensions: (  27,  27, 162)

     Estimated max dynamical RAM per process >      42.11 MB

     Estimated total dynamical RAM >     168.43 MB
 ----2D----2D----2D----2D----2D----2D----2D----2D----2D----2D----2D----2D
  The code is running with the 2D cutoff
  Please refer to:
  Sohier, T., Calandra, M., & Mauri, F. (2017), 
  Density functional perturbation theory for gated two-dimensional heterostructu
 res:
  Theoretical developments and application to flexural phonons in graphene.
  Physical Review B, 96(7), 75448. https://doi.org/10.1103/PhysRevB.96.075448
 ----2D----2D----2D----2D----2D----2D----2D----2D----2D----2D----2D----2D

     Check: negative core charge=   -0.000001

     Initial potential from superposition of free atoms

     starting charge       7.9999, renormalised to       8.0000

     negative rho (up, down):  5.686E-05 0.000E+00
     Starting wfcs are    8 randomized atomic wfcs

     total cpu time spent up to now is        0.8 secs

     Self-consistent Calculation

     iteration #  1     ecut=    80.00 Ry     beta= 0.70
     Davidson diagonalization with overlap
     ethr =  1.00E-02,  avg # of iterations =  7.4

     Threshold (ethr) on eigenvalues was too large:
     Diagonalizing with lowered threshold

     Davidson diagonalization with overlap
     c_bands:  1 eigenvalues not converged
     ethr =  7.51E-04,  avg # of iterations =  7.6

     negative rho (up, down):  5.118E-08 0.000E+00

     total cpu time spent up to now is        5.4 secs

     total energy              =     -23.88279826 Ry
     estimated scf accuracy    <       0.19166988 Ry

     iteration #  2     ecut=    80.00 Ry     beta= 0.70
     Davidson diagonalization with overlap
     ethr =  2.40E-03,  avg # of iterations =  2.0

     negative rho (up, down):  3.110E-07 0.000E+00

     total cpu time spent up to now is        6.8 secs

     total energy              =     -23.89249362 Ry
     estimated scf accuracy    <       0.00627150 Ry

     iteration #  3     ecut=    80.00 Ry     beta= 0.70
     Davidson diagonalization with overlap
     c_bands:  2 eigenvalues not converged
     c_bands:  1 eigenvalues not converged
     c_bands:  1 eigenvalues not converged
     c_bands:  2 eigenvalues not converged
     c_bands:  3 eigenvalues not converged
     c_bands:  2 eigenvalues not converged
     c_bands:  3 eigenvalues not converged
     c_bands:  2 eigenvalues not converged
     c_bands:  2 eigenvalues not converged
     c_bands:  5 eigenvalues not converged
     c_bands:  1 eigenvalues not converged
     c_bands:  1 eigenvalues not converged
     c_bands:  1 eigenvalues not converged
     c_bands:  1 eigenvalues not converged
     c_bands:  1 eigenvalues not converged
     c_bands:  2 eigenvalues not converged
     c_bands:  5 eigenvalues not converged
     c_bands:  2 eigenvalues not converged
     c_bands:  3 eigenvalues not converged
     c_bands:  1 eigenvalues not converged
     c_bands:  2 eigenvalues not converged
     c_bands:  1 eigenvalues not converged
     c_bands:  1 eigenvalues not converged
     c_bands:  1 eigenvalues not converged
     c_bands:  3 eigenvalues not converged
     c_bands:  3 eigenvalues not converged
     c_bands:  1 eigenvalues not converged
     c_bands:  1 eigenvalues not converged
     c_bands:  1 eigenvalues not converged
     c_bands:  2 eigenvalues not converged
     c_bands:  1 eigenvalues not converged
     c_bands:  1 eigenvalues not converged
     c_bands:  1 eigenvalues not converged
     c_bands:  1 eigenvalues not converged
     c_bands:  1 eigenvalues not converged
     c_bands:  2 eigenvalues not converged
     c_bands:  1 eigenvalues not converged
     c_bands:  2 eigenvalues not converged
     c_bands:  2 eigenvalues not converged
     c_bands:  1 eigenvalues not converged
     c_bands:  2 eigenvalues not converged
     c_bands:  1 eigenvalues not converged
     c_bands:  1 eigenvalues not converged
     c_bands:  2 eigenvalues not converged
     c_bands:  1 eigenvalues not converged
     c_bands:  1 eigenvalues not converged
     c_bands:  2 eigenvalues not converged
     c_bands:  2 eigenvalues not converged
     c_bands:  1 eigenvalues not converged
     c_bands:  1 eigenvalues not converged
     c_bands:  3 eigenvalues not converged
     c_bands:  1 eigenvalues not converged
     c_bands:  1 eigenvalues not converged
     c_bands:  1 eigenvalues not converged
     c_bands:  2 eigenvalues not converged
     c_bands:  1 eigenvalues not converged
     c_bands:  1 eigenvalues not converged
     c_bands:  1 eigenvalues not converged
     c_bands:  1 eigenvalues not converged
     c_bands:  2 eigenvalues not converged
     c_bands:  2 eigenvalues not converged
     c_bands:  2 eigenvalues not converged
     c_bands:  1 eigenvalues not converged
     c_bands:  1 eigenvalues not converged
     c_bands:  1 eigenvalues not converged
     c_bands:  2 eigenvalues not converged
     c_bands:  1 eigenvalues not converged
     c_bands:  1 eigenvalues not converged
     c_bands:  2 eigenvalues not converged
     c_bands:  1 eigenvalues not converged
     c_bands:  1 eigenvalues not converged
     c_bands:  2 eigenvalues not converged
     c_bands:  1 eigenvalues not converged
     c_bands:  2 eigenvalues not converged
     c_bands:  2 eigenvalues not converged
     c_bands:  3 eigenvalues not converged
     c_bands:  2 eigenvalues not converged
     c_bands:  1 eigenvalues not converged
     c_bands:  1 eigenvalues not converged
     c_bands:  2 eigenvalues not converged
     c_bands:  1 eigenvalues not converged
     c_bands:  1 eigenvalues not converged
     c_bands:  3 eigenvalues not converged
     c_bands:  1 eigenvalues not converged
     c_bands:  1 eigenvalues not converged
     c_bands:  2 eigenvalues not converged
     ethr =  7.84E-05,  avg # of iterations = 19.2

     negative rho (up, down):  2.585E-07 0.000E+00

     total cpu time spent up to now is       12.9 secs

     total energy              =     -23.91512382 Ry
     estimated scf accuracy    <       0.00799331 Ry

     iteration #  4     ecut=    80.00 Ry     beta= 0.70
     Davidson diagonalization with overlap
     ethr =  7.84E-05,  avg # of iterations =  4.3

     negative rho (up, down):  2.614E-07 0.000E+00

     total cpu time spent up to now is       14.6 secs

     total energy              =     -23.91823012 Ry
     estimated scf accuracy    <       0.01136609 Ry

     iteration #  5     ecut=    80.00 Ry     beta= 0.70
     Davidson diagonalization with overlap
     ethr =  7.84E-05,  avg # of iterations =  1.4

     negative rho (up, down):  3.690E-06 0.000E+00

     total cpu time spent up to now is       15.8 secs

     total energy              =     -23.91042079 Ry
     estimated scf accuracy    <       0.01572847 Ry

     iteration #  6     ecut=    80.00 Ry     beta= 0.70
     Davidson diagonalization with overlap
     ethr =  7.84E-05,  avg # of iterations =  2.2

     negative rho (up, down):  3.968E-06 0.000E+00

     total cpu time spent up to now is       17.3 secs

     total energy              =     -23.91089177 Ry
     estimated scf accuracy    <       0.00355614 Ry

     iteration #  7     ecut=    80.00 Ry     beta= 0.70
     Davidson diagonalization with overlap
     ethr =  4.45E-05,  avg # of iterations =  1.4

     negative rho (up, down):  3.295E-06 0.000E+00

     total cpu time spent up to now is       18.4 secs

     total energy              =     -23.91122709 Ry
     estimated scf accuracy    <       0.00290144 Ry

     iteration #  8     ecut=    80.00 Ry     beta= 0.70
     Davidson diagonalization with overlap
     ethr =  3.63E-05,  avg # of iterations =  1.8

     negative rho (up, down):  3.322E-06 0.000E+00

     total cpu time spent up to now is       19.5 secs

     total energy              =     -23.91129574 Ry
     estimated scf accuracy    <       0.00295792 Ry

     iteration #  9     ecut=    80.00 Ry     beta= 0.70
     Davidson diagonalization with overlap
     ethr =  3.63E-05,  avg # of iterations =  1.1

     negative rho (up, down):  2.441E-06 0.000E+00

     total cpu time spent up to now is       20.6 secs

     total energy              =     -23.91180717 Ry
     estimated scf accuracy    <       0.00280099 Ry

     iteration # 10     ecut=    80.00 Ry     beta= 0.70
     Davidson diagonalization with overlap
     ethr =  3.50E-05,  avg # of iterations =  1.3

     negative rho (up, down):  3.087E-07 0.000E+00

     total cpu time spent up to now is       21.6 secs

     total energy              =     -23.91886659 Ry
     estimated scf accuracy    <       0.00351111 Ry

     iteration # 11     ecut=    80.00 Ry     beta= 0.70
     Davidson diagonalization with overlap
     ethr =  3.50E-05,  avg # of iterations =  2.5

     negative rho (up, down):  8.361E-05 0.000E+00

     total cpu time spent up to now is       22.8 secs

     total energy              =     -23.90799157 Ry
     estimated scf accuracy    <       0.01805299 Ry

     iteration # 12     ecut=    80.00 Ry     beta= 0.70
     Davidson diagonalization with overlap
     c_bands:  1 eigenvalues not converged
     c_bands:  1 eigenvalues not converged
     ethr =  3.50E-05,  avg # of iterations =  6.3

     negative rho (up, down):  4.485E-05 0.000E+00

     total cpu time spent up to now is       24.6 secs

     total energy              =     -23.91080422 Ry
     estimated scf accuracy    <       0.00196378 Ry

     iteration # 13     ecut=    80.00 Ry     beta= 0.70
     Davidson diagonalization with overlap
     ethr =  2.45E-05,  avg # of iterations =  1.9

     negative rho (up, down):  4.478E-05 0.000E+00

     total cpu time spent up to now is       25.7 secs

     total energy              =     -23.91086914 Ry
     estimated scf accuracy    <       0.00088660 Ry

     iteration # 14     ecut=    80.00 Ry     beta= 0.70
     Davidson diagonalization with overlap
     ethr =  1.11E-05,  avg # of iterations =  2.3

     negative rho (up, down):  4.268E-05 0.000E+00

     total cpu time spent up to now is       26.8 secs

     total energy              =     -23.91094480 Ry
     estimated scf accuracy    <       0.00087821 Ry

     iteration # 15     ecut=    80.00 Ry     beta= 0.70
     Davidson diagonalization with overlap
     ethr =  1.10E-05,  avg # of iterations =  1.3

     negative rho (up, down):  7.033E-05 0.000E+00

     total cpu time spent up to now is       27.9 secs

     total energy              =     -23.91070658 Ry
     estimated scf accuracy    <       0.00092279 Ry

     iteration # 16     ecut=    80.00 Ry     beta= 0.70
     Davidson diagonalization with overlap
     ethr =  1.10E-05,  avg # of iterations =  1.5

     negative rho (up, down):  1.467E-04 0.000E+00

     total cpu time spent up to now is       28.9 secs

     total energy              =     -23.91093806 Ry
     estimated scf accuracy    <       0.00044388 Ry

     iteration # 17     ecut=    80.00 Ry     beta= 0.70
     Davidson diagonalization with overlap
     c_bands:  1 eigenvalues not converged
     c_bands:  1 eigenvalues not converged
     c_bands:  1 eigenvalues not converged
     ethr =  5.55E-06,  avg # of iterations =  3.0

     negative rho (up, down):  2.124E-04 0.000E+00

     total cpu time spent up to now is       30.1 secs

     total energy              =     -23.91150625 Ry
     estimated scf accuracy    <       0.00084271 Ry

     iteration # 18     ecut=    80.00 Ry     beta= 0.70
     Davidson diagonalization with overlap
     c_bands:  1 eigenvalues not converged
     c_bands:  1 eigenvalues not converged
     c_bands:  1 eigenvalues not converged
     ethr =  5.55E-06,  avg # of iterations =  3.5

     negative rho (up, down):  2.609E-04 0.000E+00

     total cpu time spent up to now is       31.3 secs

     total energy              =     -23.91195649 Ry
     estimated scf accuracy    <       0.00195581 Ry

     iteration # 19     ecut=    80.00 Ry     beta= 0.70
     Davidson diagonalization with overlap
     c_bands:  1 eigenvalues not converged
     ethr =  5.55E-06,  avg # of iterations =  2.9

     negative rho (up, down):  1.927E-05 0.000E+00

     total cpu time spent up to now is       32.5 secs

     total energy              =     -23.91016984 Ry
     estimated scf accuracy    <       0.00289015 Ry

     iteration # 20     ecut=    80.00 Ry     beta= 0.70
     Davidson diagonalization with overlap
     c_bands:  1 eigenvalues not converged
     c_bands:  1 eigenvalues not converged
     c_bands:  1 eigenvalues not converged
     ethr =  5.55E-06,  avg # of iterations =  6.4

     negative rho (up, down):  1.997E-05 0.000E+00

     total cpu time spent up to now is       34.3 secs

     total energy              =     -23.91055242 Ry
     estimated scf accuracy    <       0.00001612 Ry

     iteration # 21     ecut=    80.00 Ry     beta= 0.70
     Davidson diagonalization with overlap
     c_bands:  1 eigenvalues not converged
     ethr =  2.02E-07,  avg # of iterations =  6.7

     negative rho (up, down):  2.039E-05 0.000E+00

     total cpu time spent up to now is       36.2 secs

     total energy              =     -23.91060824 Ry
     estimated scf accuracy    <       0.00000504 Ry

     iteration # 22     ecut=    80.00 Ry     beta= 0.70
     Davidson diagonalization with overlap
     ethr =  6.29E-08,  avg # of iterations =  2.6

     negative rho (up, down):  2.311E-05 0.000E+00

     total cpu time spent up to now is       37.3 secs

     total energy              =     -23.91060829 Ry
     estimated scf accuracy    <       0.00000231 Ry

     iteration # 23     ecut=    80.00 Ry     beta= 0.70
     Davidson diagonalization with overlap
     ethr =  2.89E-08,  avg # of iterations =  2.9

     negative rho (up, down):  2.934E-05 0.000E+00

     total cpu time spent up to now is       38.5 secs

     total energy              =     -23.91061455 Ry
     estimated scf accuracy    <       0.00000116 Ry

     iteration # 24     ecut=    80.00 Ry     beta= 0.70
     Davidson diagonalization with overlap
     ethr =  1.45E-08,  avg # of iterations =  4.5

     negative rho (up, down):  2.334E-05 0.000E+00

     total cpu time spent up to now is       40.2 secs

     total energy              =     -23.91060424 Ry
     estimated scf accuracy    <       0.00002413 Ry

     iteration # 25     ecut=    80.00 Ry     beta= 0.70
     Davidson diagonalization with overlap
     ethr =  1.45E-08,  avg # of iterations =  5.3

     negative rho (up, down):  2.305E-05 0.000E+00

     total cpu time spent up to now is       42.0 secs

     total energy              =     -23.91060779 Ry
     estimated scf accuracy    <       0.00000994 Ry

     iteration # 26     ecut=    80.00 Ry     beta= 0.70
     Davidson diagonalization with overlap
     ethr =  1.45E-08,  avg # of iterations =  4.8

     negative rho (up, down):  2.304E-05 0.000E+00

     total cpu time spent up to now is       43.4 secs

     End of self-consistent calculation

     Number of k-points >= 100: set verbosity='high' to print the bands.

     the Fermi energy is    -4.3234 ev

!    total energy              =     -23.91060887 Ry
     estimated scf accuracy    <       0.00000017 Ry
     smearing contrib. (-TS)   =       0.00005749 Ry
     internal energy E=F+TS    =     -23.91066636 Ry

     The total energy is F=E-TS. E is the sum of the following terms:
     one-electron contribution =    -257.09946235 Ry
     hartree contribution      =     129.26886708 Ry
     xc contribution           =      -8.30292803 Ry
     ewald contribution        =     112.22285694 Ry

     convergence has been achieved in  26 iterations

     Writing all to output data dir ../tmp/gr.save/
 
     init_run     :      0.69s CPU      0.73s WALL (       1 calls)
     electrons    :     41.91s CPU     42.68s WALL (       1 calls)

     Called by init_run:
     wfcinit      :      0.51s CPU      0.51s WALL (       1 calls)
     potinit      :      0.02s CPU      0.02s WALL (       1 calls)
     hinit0       :      0.07s CPU      0.11s WALL (       1 calls)

     Called by electrons:
     c_bands      :     35.88s CPU     36.54s WALL (      27 calls)
     sum_band     :      5.64s CPU      5.75s WALL (      27 calls)
     v_of_rho     :      0.19s CPU      0.19s WALL (      27 calls)
     newd         :      0.12s CPU      0.12s WALL (      27 calls)
     mix_rho      :      0.08s CPU      0.08s WALL (      27 calls)

     Called by c_bands:
     init_us_2    :      0.84s CPU      0.86s WALL (    6985 calls)
     init_us_2:cp :      0.83s CPU      0.85s WALL (    6985 calls)
     cegterg      :     33.70s CPU     34.32s WALL (    3429 calls)

     Called by *egterg:
     cdiaghg      :      0.90s CPU      0.92s WALL (   17002 calls)
     h_psi        :     29.15s CPU     29.67s WALL (   17256 calls)
     s_psi        :      0.56s CPU      0.57s WALL (   17256 calls)
     g_psi        :      0.16s CPU      0.16s WALL (   13700 calls)

     Called by h_psi:
     h_psi:calbec :      0.85s CPU      0.87s WALL (   17256 calls)
     vloc_psi     :     27.48s CPU     27.98s WALL (   17256 calls)
     add_vuspsi   :      0.60s CPU      0.61s WALL (   17256 calls)

     General routines
     calbec       :      1.01s CPU      1.04s WALL (   20685 calls)
     fft          :      0.13s CPU      0.17s WALL (     298 calls)
     ffts         :      0.01s CPU      0.01s WALL (      27 calls)
     fftw         :     28.46s CPU     28.98s WALL (  198182 calls)
 
     Parallel routines
 
     PWSCF        :     42.64s CPU     43.53s WALL

 
   This run was terminated on:   7:38:45   6Feb2022            

=------------------------------------------------------------------------------=
   JOB DONE.
=------------------------------------------------------------------------------=
